
  ___ ___ ___ _ _ _  
 |   |   |_  | | | | 
 | | | | | . | | | | 
 |__ |  _|___|_____|  25.1.1b1
 |___|_|             

User:   dmapa@c043.nifl.fysik.dtu.dk
Date:   Tue May  6 11:50:19 2025
Arch:   x86_64
Pid:    147529
CWD:    /home/cat/dmapa/gpaw/dissads/tree/surfaces/BEEF-Fe/min_surf/relax
Python: 3.11.3
gpaw:   /home/cat/dmapa/bin/venv-asrlib/gpaw/gpaw (55eb60cdf0)
_gpaw:  /home/cat/dmapa/bin/venv-asrlib/gpaw/build/lib.linux-x86_64-skylake_el8-cpython-311/
        _gpaw.cpython-311-x86_64-linux-gnu.so (55eb60cdf0)
ase:    /home/cat/dmapa/bin/venv-asrlib/ase/ase (version 3.26.0b1-f4168b42a5)
numpy:  /home/modules/software/SciPy-bundle/2023.07-gfbf-2023a/lib/python3.11/site-packages/numpy (version 1.25.1)
scipy:  /home/modules/software/SciPy-bundle/2023.07-gfbf-2023a/lib/python3.11/site-packages/scipy (version 1.11.1)
libxc:  6.2.2
units:  Angstrom and eV
cores: 40
OpenMP: False
OMP_NUM_THREADS: 1

Input parameters:
  kpts: {size: [4, 3, 1]}
  mixer: {backend: pulay,
          beta: 0.05,
          method: fullspin,
          nmaxold: 5,
          weight: 100.0}
  mode: {ecut: 500,
         name: pw}
  spinpol: True
  symmetry: off
  xc: BEEF-vdW

System changes: positions, numbers, cell, pbc, initial_charges, initial_magmoms 

Initialize ...

species:
  Fe:
    name: Iron
    id: 37abbd8d6c3c35915a9b583b742da910
    Z: 26.0
    valence: 8
    core: 18
    charge: 0.0
    file: /home/modules/software/GPAW-setups/24.11.0/Fe.PBE.gz
    compensation charges: {type: gauss,
                           rc: 0.33,
                           lmax: 2}
    cutoffs: {filter: 2.06,
              core: 2.67}
    projectors:
      #              energy  rcut
      - 4s(2.00)    -5.291   1.164
      - 4p(0.00)    -1.326   1.058
      - 3d(6.00)    -7.505   1.058
      -  s          21.920   1.164
      -  p          25.885   1.058
      -  d          19.706   1.058
  
    # Using partial waves for Fe as LCAO basis

Reference energy: -1246300.365598  # eV

Spin-polarized calculation.
Magnetic moment: 100.800000

Convergence criteria:
 Maximum [total energy] change in last 3 cyles: 0.0005 eV / valence electron
 Maximum integral of absolute [dens]ity change: 0.0001 electrons / valence electron
 Maximum integral of absolute [eigenst]ate change: 4e-08 eV^2 / valence electron
 Maximum number of scf [iter]ations: 333
 (Square brackets indicate name in SCF output, whereas a 'c' in
 the SCF output indicates the quantity has converged.)

Symmetries present (total): 1

  ( 1  0  0)
  ( 0  1  0)
  ( 0  0  1)

12 k-points: 4 x 3 x 1 Monkhorst-Pack grid
12 k-points in the irreducible part of the Brillouin zone
       k-points in crystal coordinates                weights
   0:    -0.37500000   -0.33333333    0.00000000          1/12
   1:    -0.37500000    0.00000000    0.00000000          1/12
   2:    -0.37500000    0.33333333    0.00000000          1/12
   3:    -0.12500000   -0.33333333    0.00000000          1/12
   4:    -0.12500000    0.00000000    0.00000000          1/12
   5:    -0.12500000    0.33333333    0.00000000          1/12
   6:     0.12500000   -0.33333333    0.00000000          1/12
   7:     0.12500000    0.00000000    0.00000000          1/12
   8:     0.12500000    0.33333333    0.00000000          1/12
   9:     0.37500000   -0.33333333    0.00000000          1/12
          ...
  11:     0.37500000    0.33333333    0.00000000          1/12

Wave functions: Plane wave expansion
  Cutoff energy: 500.000 eV
  Number of coefficients (min, max): 53160, 53209
  Pulay-stress correction: 0.000000 eV/Ang^3 (de/decut=0.000000)
  Using FFTW library
  ScaLapack parameters: grid=1x1, blocksize=None
  Wavefunction extrapolation:
    Improved wavefunction reuse through dual PAW basis 

Occupation numbers: Fermi-Dirac:
  width: 0.1000  # eV
 

Eigensolver
   Davidson(niter=2) 

Densities:
  Coarse grid: 45*42*160 grid
  Fine grid: 90*84*320 grid
  Total Charge: 0.000000 

Density mixing:
  Method: fullspin
  Backend: pulay
  Linear mixing parameter: 0.05
  old densities: 5
  Damping of long wavelength oscillations: 100 

Hamiltonian:
  XC and Coulomb potentials evaluated on a 90*84*320 grid
  Using the BEEF-vdW Exchange-Correlation functional
  External potential:
    NoExternalPotential
 

XC parameters: BEEF-vdW with 2 nearest neighbor stencil

Memory estimate:
  Process memory now: 1243.05 MiB
  Calculator: 182.08 MiB
    Density: 16.07 MiB
      Arrays: 8.09 MiB
      Localized functions: 5.62 MiB
      Mixer: 2.36 MiB
    Hamiltonian: 6.12 MiB
      Arrays: 6.01 MiB
      XC: 0.00 MiB
      Poisson: 0.00 MiB
      vbar: 0.11 MiB
    Wavefunctions: 159.89 MiB
      Arrays psit_nG: 115.94 MiB
      Eigensolver: 28.38 MiB
      Projections: 1.41 MiB
      Projectors: 1.83 MiB
      PW-descriptor: 12.33 MiB

Total number of cores used: 40
Parallelization over k-points: 4
Domain decomposition: 2 x 1 x 5

Number of atoms: 36
Number of atomic orbitals: 324
Number of bands in calculation: 238
Number of valence electrons: 288
Bands to converge: occupied

... initialized

Initializing position-dependent things.

Density initialized from atomic densities
Creating initial wave functions:
  238 bands from LCAO basis set

      .--------------------.  
     /|                    |  
    / |                    |  
   /  |                    |  
  /   |                    |  
 *    |                    |  
 |    |                    |  
 |    |                    |  
 |    |                    |  
 |    |                    |  
 |    |                    |  
 |    |                    |  
 |    |                    |  
 |    |                    |  
 |    |                    |  
 |    |                    |  
 |    |                    |  
 |    | Fe     Fe     Fe   |  
 | Fe |   Fe      Fe       |  
 |    |                    |  
 |   FFe    FFe    FFe     |  
 Fe   |FFe    FFe    Fe    |  
 |Fe  | FFe    FFe    Fe   |  
 |    |                    |  
 | FFe|   FFe    FFe       |  
 |    Fe     Fe     Fe     |  
 Fe   | Fe     Fe          |  
 |    |                    |  
 |    |                    |  
 |    |                    |  
 |    |                    |  
 |    |                    |  
 |    |                    |  
 |    |                    |  
 |    |                    |  
 |    |                    |  
 |    |                    |  
 |    .--------------------.  
 |   /                    /   
 |  /                    /    
 | /                    /     
 |/                    /      
 *--------------------*       

Positions:
   0 Fe     0.000000    0.000000   12.971716    ( 0.0000,  0.0000,  2.8000)
   1 Fe     2.868427    0.000000   12.971716    ( 0.0000,  0.0000,  2.8000)
   2 Fe     5.736854    0.000000   12.971716    ( 0.0000,  0.0000,  2.8000)
   3 Fe     1.434214    2.028284   12.971716    ( 0.0000,  0.0000,  2.8000)
   4 Fe     4.302641    2.028284   12.971716    ( 0.0000,  0.0000,  2.8000)
   5 Fe     7.171068    2.028284   12.971716    ( 0.0000,  0.0000,  2.8000)
   6 Fe     0.000000    4.056568   12.971716    ( 0.0000,  0.0000,  2.8000)
   7 Fe     2.868427    4.056568   12.971716    ( 0.0000,  0.0000,  2.8000)
   8 Fe     5.736854    4.056568   12.971716    ( 0.0000,  0.0000,  2.8000)
   9 Fe     1.434214    6.084853   12.971716    ( 0.0000,  0.0000,  2.8000)
  10 Fe     4.302641    6.084853   12.971716    ( 0.0000,  0.0000,  2.8000)
  11 Fe     7.171068    6.084853   12.971716    ( 0.0000,  0.0000,  2.8000)
  12 Fe     0.000000    2.028284   15.000000    ( 0.0000,  0.0000,  2.8000)
  13 Fe     2.868427    2.028284   15.000000    ( 0.0000,  0.0000,  2.8000)
  14 Fe     5.736854    2.028284   15.000000    ( 0.0000,  0.0000,  2.8000)
  15 Fe     1.434214    4.056568   15.000000    ( 0.0000,  0.0000,  2.8000)
  16 Fe     4.302641    4.056568   15.000000    ( 0.0000,  0.0000,  2.8000)
  17 Fe     7.171068    4.056568   15.000000    ( 0.0000,  0.0000,  2.8000)
  18 Fe     0.000000    6.084853   15.000000    ( 0.0000,  0.0000,  2.8000)
  19 Fe     2.868427    6.084853   15.000000    ( 0.0000,  0.0000,  2.8000)
  20 Fe     5.736854    6.084853   15.000000    ( 0.0000,  0.0000,  2.8000)
  21 Fe     1.434214    8.113137   15.000000    ( 0.0000,  0.0000,  2.8000)
  22 Fe     4.302641    8.113137   15.000000    ( 0.0000,  0.0000,  2.8000)
  23 Fe     7.171068    8.113137   15.000000    ( 0.0000,  0.0000,  2.8000)
  24 Fe     0.000000    0.000000   17.030325    ( 0.0000,  0.0000,  2.8000)
  25 Fe     2.868426   -0.000000   17.030324    ( 0.0000,  0.0000,  2.8000)
  26 Fe     5.736855    0.000000   17.030324    ( 0.0000,  0.0000,  2.8000)
  27 Fe     1.434212    2.028284   17.030324    ( 0.0000,  0.0000,  2.8000)
  28 Fe     4.302641    2.028284   17.030323    ( 0.0000,  0.0000,  2.8000)
  29 Fe     7.171069    2.028284   17.030324    ( 0.0000,  0.0000,  2.8000)
  30 Fe     0.000000    4.056568   17.030325    ( 0.0000,  0.0000,  2.8000)
  31 Fe     2.868426    4.056568   17.030324    ( 0.0000,  0.0000,  2.8000)
  32 Fe     5.736855    4.056568   17.030324    ( 0.0000,  0.0000,  2.8000)
  33 Fe     1.434212    6.084853   17.030324    ( 0.0000,  0.0000,  2.8000)
  34 Fe     4.302641    6.084853   17.030323    ( 0.0000,  0.0000,  2.8000)
  35 Fe     7.171069    6.084853   17.030324    ( 0.0000,  0.0000,  2.8000)

Unit cell:
           periodic     x           y           z      points  spacing
  1. axis:    yes    8.605281    0.000000    0.000000    45     0.1912
  2. axis:    yes    0.000000    8.113137    0.000000    42     0.1932
  3. axis:    no     0.000000    0.000000   30.000000   160     0.1875

  Lengths:   8.605281   8.113137  30.000000
  Angles:   90.000000  90.000000  90.000000

Effective grid spacing dv^(1/3) = 0.1906

     iter     time        total  log10-change:  magmom
                         energy   eigst   dens
iter:   1 11:51:43 -2521.017998                   +100.9779
iter:   2 11:52:08 -2513.802469   -0.93  -1.09    +100.7431
iter:   3 11:52:34 -2509.742575   -1.35  -1.16    +100.3745
iter:   4 11:53:00 -2507.369387   -0.93  -1.22    +99.4183
iter:   5 11:53:25 -2510.313420   -1.72  -1.40    +99.2919
iter:   6 11:53:51 -2507.926975   -1.78  -1.33    +98.9699
iter:   7 11:54:16 -2509.513821   -1.54  -1.42    +96.3145
iter:   8 11:54:42 -2509.397233   -2.20  -1.89    +96.0906
iter:   9 11:55:07 -2509.388282c  -2.90  -1.96    +96.0696
iter:  10 11:55:33 -2509.411328c  -2.19  -1.97    +95.7321
iter:  11 11:55:58 -2509.375553c  -2.73  -2.21    +95.8008
iter:  12 11:56:24 -2509.358361c  -3.57  -2.36    +95.9289
iter:  13 11:56:49 -2509.399046c  -3.63  -2.39    +95.9765
iter:  14 11:57:15 -2509.369783c  -3.61  -2.34    +96.0271
iter:  15 11:57:40 -2509.373690c  -4.59  -2.56    +96.0210
iter:  16 11:58:06 -2509.388258c  -3.45  -2.60    +96.0313
iter:  17 11:58:31 -2509.387573c  -4.64  -2.85    +96.0226
iter:  18 11:58:57 -2509.387115c  -4.93  -2.89    +96.0213
iter:  19 11:59:22 -2509.386843c  -4.53  -2.96    +96.0416
iter:  20 11:59:48 -2509.387522c  -4.96  -3.14    +96.0780
iter:  21 12:00:13 -2509.387689c  -5.24  -3.24    +96.0952
iter:  22 12:00:39 -2509.388272c  -5.40  -3.23    +96.1063
iter:  23 12:01:04 -2509.389101c  -5.09  -3.35    +96.1402
iter:  24 12:01:30 -2509.389329c  -5.51  -3.48    +96.1701
iter:  25 12:01:56 -2509.389335c  -6.22  -3.61    +96.1822
iter:  26 12:02:21 -2509.389276c  -6.68  -3.70    +96.1860
iter:  27 12:02:46 -2509.389379c  -6.76  -3.77    +96.1912
iter:  28 12:03:13 -2509.389285c  -6.07  -3.74    +96.2047
iter:  29 12:03:38 -2509.389364c  -6.71  -3.85    +96.2110
iter:  30 12:04:04 -2509.389451c  -6.60  -3.98    +96.2165
iter:  31 12:04:29 -2509.389492c  -6.91  -4.17c   +96.2201
iter:  32 12:04:55 -2509.389552c  -6.77  -4.22c   +96.2291
iter:  33 12:05:20 -2509.389494c  -6.91  -4.21c   +96.2293
iter:  34 12:05:46 -2509.389573c  -6.90  -4.24c   +96.2385
iter:  35 12:06:11 -2509.389573c  -7.45c -4.43c   +96.2411

Converged after 35 iterations.

Dipole moment: (-0.000000, 0.000000, -0.000158) |e|*Ang

Total magnetic moment: (0.000000, 0.000000, 96.241059)
Local magnetic moments:
   0 Fe ( 0.000000,  0.000000,  2.714761)
   1 Fe ( 0.000000,  0.000000,  2.714763)
   2 Fe ( 0.000000,  0.000000,  2.714763)
   3 Fe ( 0.000000,  0.000000,  2.714754)
   4 Fe ( 0.000000,  0.000000,  2.714756)
   5 Fe ( 0.000000,  0.000000,  2.714754)
   6 Fe ( 0.000000,  0.000000,  2.714761)
   7 Fe ( 0.000000,  0.000000,  2.714763)
   8 Fe ( 0.000000,  0.000000,  2.714763)
   9 Fe ( 0.000000,  0.000000,  2.714754)
  10 Fe ( 0.000000,  0.000000,  2.714756)
  11 Fe ( 0.000000,  0.000000,  2.714754)
  12 Fe ( 0.000000,  0.000000,  2.578520)
  13 Fe ( 0.000000,  0.000000,  2.578520)
  14 Fe ( 0.000000,  0.000000,  2.578520)
  15 Fe ( 0.000000,  0.000000,  2.578510)
  16 Fe ( 0.000000,  0.000000,  2.578511)
  17 Fe ( 0.000000,  0.000000,  2.578510)
  18 Fe ( 0.000000,  0.000000,  2.578520)
  19 Fe ( 0.000000,  0.000000,  2.578520)
  20 Fe ( 0.000000,  0.000000,  2.578520)
  21 Fe ( 0.000000,  0.000000,  2.578510)
  22 Fe ( 0.000000,  0.000000,  2.578511)
  23 Fe ( 0.000000,  0.000000,  2.578510)
  24 Fe ( 0.000000,  0.000000,  2.715682)
  25 Fe ( 0.000000,  0.000000,  2.715683)
  26 Fe ( 0.000000,  0.000000,  2.715683)
  27 Fe ( 0.000000,  0.000000,  2.715675)
  28 Fe ( 0.000000,  0.000000,  2.715676)
  29 Fe ( 0.000000,  0.000000,  2.715675)
  30 Fe ( 0.000000,  0.000000,  2.715682)
  31 Fe ( 0.000000,  0.000000,  2.715683)
  32 Fe ( 0.000000,  0.000000,  2.715683)
  33 Fe ( 0.000000,  0.000000,  2.715675)
  34 Fe ( 0.000000,  0.000000,  2.715676)
  35 Fe ( 0.000000,  0.000000,  2.715675)

Energy contributions relative to reference atoms: (reference = -1246300.365598)

Kinetic:       +867.471580
Potential:     -750.220566
External:        +0.000000
XC:            -2627.384998
Entropy (-ST):   -1.253840
Local:           +1.371332
SIC:             +0.000000
--------------------------
Free energy:   -2510.016493
Extrapolated:  -2509.389573

Spin contamination: 2.397990 electrons
Showing only first 2 kpts
                      Up                  
Forces in eV/Ang:
  0 Fe    0.00000   -0.00000   -0.14286
  1 Fe   -0.00008    0.00000   -0.14277
  2 Fe    0.00008    0.00000   -0.14277
  3 Fe   -0.00007   -0.00000   -0.14282
  4 Fe   -0.00000   -0.00000   -0.14273
  5 Fe    0.00007   -0.00000   -0.14282
  6 Fe   -0.00000    0.00000   -0.14286
  7 Fe   -0.00008    0.00000   -0.14277
  8 Fe    0.00008   -0.00000   -0.14277
  9 Fe   -0.00007    0.00000   -0.14282
 10 Fe   -0.00000    0.00000   -0.14273
 11 Fe    0.00007    0.00000   -0.14282
 12 Fe    0.00000   -0.00000    0.00000
 13 Fe   -0.00004   -0.00000    0.00000
 14 Fe    0.00004   -0.00000    0.00000
 15 Fe   -0.00004    0.00000    0.00000
 16 Fe    0.00000    0.00000    0.00000
 17 Fe    0.00004    0.00000    0.00000
 18 Fe    0.00000    0.00000    0.00000
 19 Fe   -0.00004    0.00000    0.00000
 20 Fe    0.00004    0.00000    0.00000
 21 Fe   -0.00004    0.00000    0.00000
 22 Fe    0.00000    0.00000    0.00000
 23 Fe    0.00004    0.00000    0.00000
 24 Fe    0.00000    0.00000    0.14286
 25 Fe   -0.00008   -0.00000    0.14277
 26 Fe    0.00008    0.00000    0.14277
 27 Fe   -0.00007   -0.00000    0.14282
 28 Fe   -0.00000   -0.00000    0.14273
 29 Fe    0.00007   -0.00000    0.14282
 30 Fe    0.00000    0.00000    0.14286
 31 Fe   -0.00008    0.00000    0.14277
 32 Fe    0.00008   -0.00000    0.14277
 33 Fe   -0.00007    0.00000    0.14282
 34 Fe   -0.00000    0.00000    0.14273
 35 Fe    0.00007    0.00000    0.14282

System changes: positions 

Initializing position-dependent things.

Timing:                              incl.     excl.
-----------------------------------------------------------
Forces:                              2.768     2.768   0.1% |
Hamiltonian:                         6.275     0.007   0.0% |
 Atomic:                             0.000     0.000   0.0% |
  XC Correction:                     0.000     0.000   0.0% |
 Calculate atomic Hamiltonians:      0.214     0.214   0.0% |
 Communicate:                        0.202     0.202   0.0% |
 Initialize Hamiltonian:             0.000     0.000   0.0% |
 Poisson:                            0.002     0.002   0.0% |
 XC 3D grid:                         5.850     0.826   0.0% |
  VdW-DF integral:                   5.024     0.074   0.0% |
   Convolution:                      0.159     0.159   0.0% |
   FFT:                              0.059     0.059   0.0% |
   gather:                           0.874     0.874   0.0% |
   hmm1:                             0.048     0.048   0.0% |
   hmm2:                             0.097     0.097   0.0% |
   iFFT:                             0.066     0.066   0.0% |
   potential:                        0.446     0.015   0.0% |
    collect:                         0.069     0.069   0.0% |
    p1:                              0.111     0.111   0.0% |
    p2:                              0.173     0.173   0.0% |
    sum:                             0.078     0.078   0.0% |
   splines:                          3.201     3.201   0.2% |
LCAO initialization:                20.387     0.022   0.0% |
 LCAO eigensolver:                   3.738     0.001   0.0% |
  Calculate projections:             0.000     0.000   0.0% |
  DenseAtomicCorrection:             0.000     0.000   0.0% |
  Distribute overlap matrix:         3.605     3.605   0.2% |
  Orbital Layouts:                   0.128     0.128   0.0% |
  Potential matrix:                  0.001     0.001   0.0% |
  Sum over cells:                    0.003     0.003   0.0% |
 LCAO to grid:                      16.161    16.161   0.8% |
 Set positions (LCAO WFS):           0.466     0.413   0.0% |
  Basic WFS set positions:           0.007     0.007   0.0% |
  Basis functions set positions:     0.000     0.000   0.0% |
  P tci:                             0.000     0.000   0.0% |
  ST tci:                            0.028     0.028   0.0% |
  mktci:                             0.018     0.018   0.0% |
PWDescriptor:                        0.431     0.431   0.0% |
Redistribute:                        0.000     0.000   0.0% |
SCF-cycle:                         302.542     1.036   0.0% |
 Davidson:                         197.244    40.994   1.9% ||
  Apply H:                          22.371    21.704   1.0% |
   HMM T:                            0.667     0.667   0.0% |
  Subspace diag:                    33.722     0.006   0.0% |
   calc_h_matrix:                   25.639     3.443   0.2% |
    Apply H:                        22.196    21.510   1.0% |
     HMM T:                          0.686     0.686   0.0% |
   diagonalize:                      1.699     1.699   0.1% |
   rotate_psi:                       6.379     6.379   0.3% |
  calc. matrices:                   66.399    21.936   1.0% |
   Apply H:                         44.463    43.123   2.0% ||
    HMM T:                           1.340     1.340   0.1% |
  diagonalize:                      21.139    21.139   1.0% |
  rotate_psi:                       12.619    12.619   0.6% |
 Density:                           27.725     0.001   0.0% |
  Atomic density matrices:           0.241     0.241   0.0% |
  Mix:                               8.183     8.183   0.4% |
  Multipole moments:                 0.010     0.010   0.0% |
  Pseudo density:                   19.290    12.007   0.6% |
   Symmetrize density:               7.283     7.283   0.3% |
 Hamiltonian:                       76.010     0.193   0.0% |
  Atomic:                            0.009     0.009   0.0% |
   XC Correction:                    0.000     0.000   0.0% |
  Calculate atomic Hamiltonians:     5.845     5.845   0.3% |
  Communicate:                       4.997     4.997   0.2% |
  Poisson:                           0.057     0.057   0.0% |
  XC 3D grid:                       64.909    22.190   1.1% |
   VdW-DF integral:                 42.718     1.818   0.1% |
    Convolution:                     4.590     4.590   0.2% |
    FFT:                             1.772     1.772   0.1% |
    gather:                         16.388    16.388   0.8% |
    hmm1:                            1.303     1.303   0.1% |
    hmm2:                            2.883     2.883   0.1% |
    iFFT:                            1.776     1.776   0.1% |
    potential:                      12.188     0.420   0.0% |
     collect:                        1.856     1.856   0.1% |
     p1:                             3.149     3.149   0.1% |
     p2:                             4.693     4.693   0.2% |
     sum:                            2.071     2.071   0.1% |
    splines:                         0.000     0.000   0.0% |
 Orthonormalize:                     0.527     0.000   0.0% |
  calc_s_matrix:                     0.057     0.057   0.0% |
  inverse-cholesky:                  0.030     0.030   0.0% |
  projections:                       0.316     0.316   0.0% |
  rotate_psi_s:                      0.123     0.123   0.0% |
Set symmetry:                        0.002     0.002   0.0% |
Other:                            1778.576  1778.576  84.3% |---------------------------------|
-----------------------------------------------------------
Total:                                      2110.981 100.0%

Memory usage: 1.41 GiB
Date: Tue May  6 12:19:51 2025
 -4.14c   +96.2533
iter:   9 12:10:11 -2509.392671c  -6.82  -4.36c   +96.2536
iter:  10 12:10:37 -2509.392658c  -7.51c -4.40c   +96.2537

Converged after 10 iterations.

Dipole moment: (0.000000, 0.000000, -0.000851) |e|*Ang

Total magnetic moment: (0.000000, 0.000000, 96.253653)
Local magnetic moments:
   0 Fe ( 0.000000,  0.000000,  2.715252)
   1 Fe ( 0.000000,  0.000000,  2.715255)
   2 Fe ( 0.000000,  0.000000,  2.715255)
   3 Fe ( 0.000000,  0.000000,  2.715245)
   4 Fe ( 0.000000,  0.000000,  2.715247)
   5 Fe ( 0.000000,  0.000000,  2.715245)
   6 Fe ( 0.000000,  0.000000,  2.715252)
   7 Fe ( 0.000000,  0.000000,  2.715255)
   8 Fe ( 0.000000,  0.000000,  2.715255)
   9 Fe ( 0.000000,  0.000000,  2.715245)
  10 Fe ( 0.000000,  0.000000,  2.715247)
  11 Fe ( 0.000000,  0.000000,  2.715245)
  12 Fe ( 0.000000,  0.000000,  2.578813)
  13 Fe ( 0.000000,  0.000000,  2.578814)
  14 Fe ( 0.000000,  0.000000,  2.578814)
  15 Fe ( 0.000000,  0.000000,  2.578805)
  16 Fe ( 0.000000,  0.000000,  2.578805)
  17 Fe ( 0.000000,  0.000000,  2.578805)
  18 Fe ( 0.000000,  0.000000,  2.578813)
  19 Fe ( 0.000000,  0.000000,  2.578814)
  20 Fe ( 0.000000,  0.000000,  2.578814)
  21 Fe ( 0.000000,  0.000000,  2.578805)
  22 Fe ( 0.000000,  0.000000,  2.578805)
  23 Fe ( 0.000000,  0.000000,  2.578805)
  24 Fe ( 0.000000,  0.000000,  2.716519)
  25 Fe ( 0.000000,  0.000000,  2.716519)
  26 Fe ( 0.000000,  0.000000,  2.716519)
  27 Fe ( 0.000000,  0.000000,  2.716511)
  28 Fe ( 0.000000,  0.000000,  2.716512)
  29 Fe ( 0.000000,  0.000000,  2.716511)
  30 Fe ( 0.000000,  0.000000,  2.716519)
  31 Fe ( 0.000000,  0.000000,  2.716519)
  32 Fe ( 0.000000,  0.000000,  2.716519)
  33 Fe ( 0.000000,  0.000000,  2.716511)
  34 Fe ( 0.000000,  0.000000,  2.716512)
  35 Fe ( 0.000000,  0.000000,  2.716511)

Energy contributions relative to reference atoms: (reference = -1246300.365598)

Kinetic:       +866.932099
Potential:     -749.749231
External:        +0.000000
XC:            -2627.295237
Entropy (-ST):   -1.253364
Local:           +1.346392
SIC:             +0.000000
--------------------------
Free energy:   -2510.019340
Extrapolated:  -2509.392658

Spin contamination: 2.403891 electrons
Showing only first 2 kpts
                      Up                     Down
 Kpt  Band  Eigenvalues  Occupancy  Eigenvalues  Occupancy
  0   142     -3.24766    1.00000     -0.36631    0.00000
  0   143     -3.22548    1.00000     -0.33946    0.00000
  0   144     -3.20655    1.00000     -0.33427    0.00000
  0   145     -3.20580    1.00000     -0.33076    0.00000

  1   142     -3.22786    1.00000     -0.28256    0.00000
  1   143     -3.22786    1.00000     -0.25612    0.00000
  1   144     -3.20885    1.00000     -0.25378    0.00000
  1   145     -3.20884    1.00000     -0.25378    0.00000


Fermi level: -1.91408

No gap
No difference between direct/indirect transitions

Forces in eV/Ang:
  0 Fe   -0.00000    0.00000   -0.14031
  1 Fe   -0.00001    0.00000   -0.14031
  2 Fe    0.00001    0.00000   -0.14031
  3 Fe   -0.00001   -0.00000   -0.14029
  4 Fe   -0.00000    0.00000   -0.14029
  5 Fe    0.00001   -0.00000   -0.14029
  6 Fe   -0.00000   -0.00000   -0.14031
  7 Fe   -0.00001   -0.00000   -0.14031
  8 Fe    0.00001   -0.00000   -0.14031
  9 Fe   -0.00001    0.00000   -0.14029
 10 Fe    0.00000   -0.00000   -0.14029
 11 Fe    0.00001    0.00000   -0.14029
 12 Fe   -0.00000   -0.00000    0.01785
 13 Fe    0.00000    0.00000    0.01787
 14 Fe   -0.00000    0.00000    0.01787
 15 Fe   -0.00000   -0.00000    0.01786
 16 Fe   -0.00000   -0.00000    0.01788
 17 Fe    0.00000   -0.00000    0.01786
 18 Fe   -0.00000    0.00000    0.01785
 19 Fe    0.00000   -0.00000    0.01787
 20 Fe   -0.00000   -0.00000    0.01787
 21 Fe   -0.00000    0.00000    0.01786
 22 Fe   -0.00000    0.00000    0.01787
 23 Fe    0.00000    0.00000    0.01786
 24 Fe   -0.00000   -0.00000    0.12272
 25 Fe    0.00001   -0.00000    0.12266
 26 Fe   -0.00001   -0.00000    0.12266
 27 Fe    0.00000    0.00000    0.12268
 28 Fe   -0.00000   -0.00000    0.12263
 29 Fe   -0.00000    0.00000    0.12268
 30 Fe   -0.00000   -0.00000    0.12272
 31 Fe    0.00001    0.00000    0.12266
 32 Fe   -0.00001    0.00000    0.12266
 33 Fe    0.00000   -0.00000    0.12268
 34 Fe    0.00000   -0.00000    0.12263
 35 Fe   -0.00000   -0.00000    0.12268

System changes: positions 

Initializing position-dependent things.

Density initialized from wave functions
      .--------------------.  
     /|                    |  
    / |                    |  
   /  |                    |  
  /   |                    |  
 *    |                    |  
 |    |                    |  
 |    |                    |  
 |    |                    |  
 |    |                    |  
 |    |                    |  
 |    |                    |  
 |    |                    |  
 |    |                    |  
 |    |                    |  
 |    |                    |  
 |    |      Fe     Fe     Fe 
 |    | Fe     Fe     Fe   |  
 |    |   Fe      Fe    Fe |  
 |    |                    |  
 |   FFe    FFe    FFe     |  
 |    |Fe     Fe     Fe    |  
 |Fe  | FFe    FFe    Fe   |  
 |    |                    |  
 | FFe|   FFe    FFe       |  
 |    Fe     Fe     Fe     |  
 Fe   | Fe     Fe          |  
 |    |                    |  
 |    |                    |  
 |    |                    |  
 |    |                    |  
 |    |                    |  
 |    |                    |  
 |    |                    |  
 |    |                    |  
 |    |                    |  
 |    |                    |  
 |    .--------------------.  
 |   /                    /   
 |  /                    /    
 | /                    /     
 |/                    /      
 *--------------------*       

Positions:
   0 Fe     0.000000    0.000000   12.971716    ( 0.0000,  0.0000,  2.8000)
   1 Fe     2.868427    0.000000   12.971716    ( 0.0000,  0.0000,  2.8000)
   2 Fe     5.736854    0.000000   12.971716    ( 0.0000,  0.0000,  2.8000)
   3 Fe     1.434214    2.028284   12.971716    ( 0.0000,  0.0000,  2.8000)
   4 Fe     4.302641    2.028284   12.971716    ( 0.0000,  0.0000,  2.8000)
   5 Fe     7.171068    2.028284   12.971716    ( 0.0000,  0.0000,  2.8000)
   6 Fe     0.000000    4.056568   12.971716    ( 0.0000,  0.0000,  2.8000)
   7 Fe     2.868427    4.056568   12.971716    ( 0.0000,  0.0000,  2.8000)
   8 Fe     5.736854    4.056568   12.971716    ( 0.0000,  0.0000,  2.8000)
   9 Fe     1.434214    6.084853   12.971716    ( 0.0000,  0.0000,  2.8000)
  10 Fe     4.302641    6.084853   12.971716    ( 0.0000,  0.0000,  2.8000)
  11 Fe     7.171068    6.084853   12.971716    ( 0.0000,  0.0000,  2.8000)
  12 Fe     0.000000    2.028284   15.000000    ( 0.0000,  0.0000,  2.8000)
  13 Fe     2.868427    2.028284   15.000000    ( 0.0000,  0.0000,  2.8000)
  14 Fe     5.736854    2.028284   15.000000    ( 0.0000,  0.0000,  2.8000)
  15 Fe     1.434214    4.056568   15.000000    ( 0.0000,  0.0000,  2.8000)
  16 Fe     4.302641    4.056568   15.000000    ( 0.0000,  0.0000,  2.8000)
  17 Fe     7.171068    4.056568   15.000000    ( 0.0000,  0.0000,  2.8000)
  18 Fe     0.000000    6.084853   15.000000    ( 0.0000,  0.0000,  2.8000)
  19 Fe     2.868427    6.084853   15.000000    ( 0.0000,  0.0000,  2.8000)
  20 Fe     5.736854    6.084853   15.000000    ( 0.0000,  0.0000,  2.8000)
  21 Fe     1.434214    8.113137   15.000000    ( 0.0000,  0.0000,  2.8000)
  22 Fe     4.302641    8.113137   15.000000    ( 0.0000,  0.0000,  2.8000)
  23 Fe     7.171068    8.113137   15.000000    ( 0.0000,  0.0000,  2.8000)
  24 Fe    -0.000000   -0.000000   17.059629    ( 0.0000,  0.0000,  2.8000)
  25 Fe     2.868426   -0.000000   17.059612    ( 0.0000,  0.0000,  2.8000)
  26 Fe     5.736855   -0.000000   17.059612    ( 0.0000,  0.0000,  2.8000)
  27 Fe     1.434212    2.028284   17.059620    ( 0.0000,  0.0000,  2.8000)
  28 Fe     4.302641    2.028284   17.059606    ( 0.0000,  0.0000,  2.8000)
  29 Fe     7.171069    2.028284   17.059620    ( 0.0000,  0.0000,  2.8000)
  30 Fe    -0.000000    4.056568   17.059629    ( 0.0000,  0.0000,  2.8000)
  31 Fe     2.868426    4.056568   17.059612    ( 0.0000,  0.0000,  2.8000)
  32 Fe     5.736855    4.056568   17.059612    ( 0.0000,  0.0000,  2.8000)
  33 Fe     1.434212    6.084853   17.059620    ( 0.0000,  0.0000,  2.8000)
  34 Fe     4.302641    6.084853   17.059606    ( 0.0000,  0.0000,  2.8000)
  35 Fe     7.171069    6.084853   17.059620    ( 0.0000,  0.0000,  2.8000)

Unit cell:
           periodic     x           y           z      points  spacing
  1. axis:    yes    8.605281    0.000000    0.000000    45     0.1912
  2. axis:    yes    0.000000    8.113137    0.000000    42     0.1932
  3. axis:    no     0.000000    0.000000   30.000000   160     0.1875

  Lengths:   8.605281   8.113137  30.000000
  Angles:   90.000000  90.000000  90.000000

Effective grid spacing dv^(1/3) = 0.1906

     iter     time        total  log10-change:  magmom
                         energy   eigst   dens
iter:   1 12:11:13 -2510.925329   -1.84           +96.2982
iter:   2 12:11:38 -2513.284202   -1.82  -1.73    +96.3346
iter:   3 12:12:04 -2509.740410   -2.30  -1.55    +96.3282
iter:   4 12:12:29 -2509.476095   -3.65  -2.01    +96.3243
iter:   5 12:12:55 -2509.417037   -2.93  -2.41    +96.3314
iter:   6 12:13:20 -2509.412789c  -3.51  -2.77    +96.3349
iter:   7 12:13:45 -2509.412484c  -4.04  -2.92    +96.3365
iter:   8 12:14:11 -2509.411505c  -4.09  -3.04    +96.3420
iter:   9 12:14:36 -2509.411520c  -4.47  -3.37    +96.3462
iter:  10 12:15:02 -2509.411406c  -5.19  -3.38    +96.3491
iter:  11 12:15:27 -2509.412075c  -5.33  -3.42    +96.3517
iter:  12 12:15:53 -2509.411717c  -5.08  -3.34    +96.3661
iter:  13 12:16:19 -2509.411703c  -5.98  -3.69    +96.3681
iter:  14 12:16:44 -2509.411840c  -5.97  -3.68    +96.3719
iter:  15 12:17:10 -2509.411925c  -6.41  -3.88    +96.3721
iter:  16 12:17:35 -2509.411938c  -7.06  -3.97    +96.3727
iter:  17 12:18:01 -2509.411974c  -6.35  -4.03c   +96.3725
iter:  18 12:18:26 -2509.411978c  -6.47  -4.17c   +96.3732
iter:  19 12:18:52 -2509.411986c  -7.05  -4.19c   +96.3735
iter:  20 12:19:17 -2509.411973c  -7.03  -4.27c   +96.3741
iter:  21 12:19:43 -2509.411986c  -7.41c -4.29c   +96.3741

Converged after 21 iterations.

Dipole moment: (0.000000, 0.000002, -0.003338) |e|*Ang

Total magnetic moment: (0.000000, 0.000000, 96.374140)
Local magnetic moments:
   0 Fe ( 0.000000,  0.000000,  2.712867)
   1 Fe ( 0.000000,  0.000000,  2.712868)
   2 Fe ( 0.000000,  0.000000,  2.712868)
   3 Fe ( 0.000000,  0.000000,  2.712860)
   4 Fe ( 0.000000,  0.000000,  2.712861)
   5 Fe ( 0.000000,  0.000000,  2.712860)
   6 Fe ( 0.000000,  0.000000,  2.712867)
   7 Fe ( 0.000000,  0.000000,  2.712868)
   8 Fe ( 0.000000,  0.000000,  2.712868)
   9 Fe ( 0.000000,  0.000000,  2.712860)
  10 Fe ( 0.000000,  0.000000,  2.712861)
  11 Fe ( 0.000000,  0.000000,  2.712860)
  12 Fe ( 0.000000,  0.000000,  2.587131)
  13 Fe ( 0.000000,  0.000000,  2.587130)
  14 Fe ( 0.000000,  0.000000,  2.587130)
  15 Fe ( 0.000000,  0.000000,  2.587123)
  16 Fe ( 0.000000,  0.000000,  2.587122)
  17 Fe ( 0.000000,  0.000000,  2.587123)
  18 Fe ( 0.000000,  0.000000,  2.587131)
  19 Fe ( 0.000000,  0.000000,  2.587130)
  20 Fe ( 0.000000,  0.000000,  2.587130)
  21 Fe ( 0.000000,  0.000000,  2.587123)
  22 Fe ( 0.000000,  0.000000,  2.587122)
  23 Fe ( 0.000000,  0.000000,  2.587123)
  24 Fe ( 0.000000,  0.000000,  2.725337)
  25 Fe ( 0.000000,  0.000000,  2.725331)
  26 Fe ( 0.000000,  0.000000,  2.725331)
  27 Fe ( 0.000000,  0.000000,  2.725326)
  28 Fe ( 0.000000,  0.000000,  2.725320)
  29 Fe ( 0.000000,  0.000000,  2.725326)
  30 Fe ( 0.000000,  0.000000,  2.725337)
  31 Fe ( 0.000000,  0.000000,  2.725331)
  32 Fe ( 0.000000,  0.000000,  2.725331)
  33 Fe ( 0.000000,  0.000000,  2.725326)
  34 Fe ( 0.000000,  0.000000,  2.725320)
  35 Fe ( 0.000000,  0.000000,  2.725326)

Energy contributions relative to reference atoms: (reference = -1246300.365598)

Kinetic:       +859.628376
Potential:     -743.767115
External:        +0.000000
XC:            -2625.955072
Entropy (-ST):   -1.249462
Local:           +1.306556
SIC:             +0.000000
--------------------------
Free energy:   -2510.036717
Extrapolated:  -2509.411986

Spin contamination: 2.451616 electrons
Showing only first 2 kpts
                      Up                     Down
 Kpt  Band  Eigenvalues  Occupancy  Eigenvalues  Occupancy
  0   142     -3.24711    1.00000     -0.38185    0.00000
  0   143     -3.22832    1.00000     -0.34425    0.00000
  0   144     -3.20727    1.00000     -0.34385    0.00000
  0   145     -3.20684    1.00000     -0.32987    0.00000

  1   142     -3.23318    1.00000     -0.27524    0.00000
  1   143     -3.23159    1.00000     -0.25555    0.00000
  1   144     -3.20737    1.00000     -0.25554    0.00000
  1   145     -3.20735    1.00000     -0.24940    0.00000


Fermi level: -1.91152

No gap
No difference between direct/indirect transitions

Forces in eV/Ang:
  0 Fe    0.00000   -0.00000   -0.13020
  1 Fe   -0.00009   -0.00000   -0.13008
  2 Fe    0.00009   -0.00000   -0.13008
  3 Fe   -0.00009    0.00000   -0.13014
  4 Fe   -0.00000   -0.00000   -0.13004
  5 Fe    0.00009   -0.00000   -0.13014
  6 Fe    0.00000    0.00000   -0.13020
  7 Fe   -0.00009    0.00000   -0.13008
  8 Fe    0.00009    0.00000   -0.13008
  9 Fe   -0.00009   -0.00000   -0.13014
 10 Fe   -0.00000    0.00000   -0.13004
 11 Fe    0.00009   -0.00000   -0.13014
 12 Fe   -0.00000    0.00000    0.14804
 13 Fe   -0.00006    0.00000    0.14804
 14 Fe    0.00006    0.00000    0.14804
 15 Fe   -0.00005    0.00000    0.14803
 16 Fe   -0.00000   -0.00000    0.14806
 17 Fe    0.00005   -0.00000    0.14803
 18 Fe    0.00000   -0.00000    0.14804
 19 Fe   -0.00006   -0.00000    0.14804
 20 Fe    0.00006   -0.00000    0.14804
 21 Fe   -0.00005   -0.00000    0.14803
 22 Fe   -0.00000    0.00000    0.14806
 23 Fe    0.00005    0.00000    0.14803
 24 Fe    0.00000   -0.00000   -0.02047
 25 Fe   -0.00008   -0.00000   -0.02047
 26 Fe    0.00008   -0.00000   -0.02047
 27 Fe   -0.00007    0.00000   -0.02047
 28 Fe   -0.00000   -0.00000   -0.02047
 29 Fe    0.00007    0.00000   -0.02047
 30 Fe    0.00000    0.00000   -0.02047
 31 Fe   -0.00009   -0.00000   -0.02047
 32 Fe    0.00009    0.00000   -0.02047
 33 Fe   -0.00007   -0.00000   -0.02047
 34 Fe    0.00000    0.00000   -0.02047
 35 Fe    0.00007   -0.00000   -0.02047

Timing:                                      incl.     excl.
-------------------------------------------------------------------
Density initialized from wave functions:     3.264     3.264   0.2% |
 Symmetrize density:                         0.000     0.000   0.0% |
Forces:                                     14.788    14.788   0.8% |
Hamiltonian:                                11.803     0.022   0.0% |
 Atomic:                                     0.001     0.001   0.0% |
  XC Correction:                             0.000     0.000   0.0% |
 Calculate atomic Hamiltonians:              0.648     0.648   0.0% |
 Communicate:                                0.554     0.554   0.0% |
 Initialize Hamiltonian:                     0.000     0.000   0.0% |
 Poisson:                                    0.007     0.007   0.0% |
 XC 3D grid:                                10.572     2.457   0.1% |
  VdW-DF integral:                           8.114     0.213   0.0% |
   Convolution:                              0.482     0.482   0.0% |
   FFT:                                      0.190     0.190   0.0% |
   gather:                                   2.045     2.045   0.1% |
   hmm1:                                     0.131     0.131   0.0% |
   hmm2:                                     0.306     0.306   0.0% |
   iFFT:                                     0.197     0.197   0.0% |
   potential:                                1.348     0.049   0.0% |
    collect:                                 0.202     0.202   0.0% |
    p1:                                      0.341     0.341   0.0% |
    p2:                                      0.522     0.522   0.0% |
    sum:                                     0.234     0.234   0.0% |
   splines:                                  3.204     3.204   0.2% |
LCAO initialization:                        53.437     0.021   0.0% |
 LCAO eigensolver:                           4.091     0.002   0.0% |
  Calculate projections:                     0.000     0.000   0.0% |
  DenseAtomicCorrection:                     0.000     0.000   0.0% |
  Distribute overlap matrix:                 3.690     3.690   0.2% |
  Orbital Layouts:                           0.390     0.390   0.0% |
  Potential matrix:                          0.000     0.000   0.0% |
  Sum over cells:                            0.009     0.009   0.0% |
 LCAO to grid:                              48.491    48.491   2.7% ||
 Set positions (LCAO WFS):                   0.833     0.775   0.0% |
  Basic WFS set positions:                   0.001     0.001   0.0% |
  Basis functions set positions:             0.000     0.000   0.0% |
  P tci:                                     0.001     0.001   0.0% |
  ST tci:                                    0.037     0.037   0.0% |
  mktci:                                     0.019     0.019   0.0% |
PWDescriptor:                                0.074     0.074   0.0% |
Redistribute:                                0.002     0.002   0.0% |
SCF-cycle:                                1676.055     4.564   0.3% |
 Davidson:                                1387.323   290.027  16.4% |------|
  Apply H:                                 156.183   151.406   8.5% |--|
   HMM T:                                    4.777     4.777   0.3% |
  Subspace diag:                           237.203     0.047   0.0% |
   calc_h_matrix:                          180.788    25.568   1.4% ||
    Apply H:                               155.220   150.355   8.5% |--|
     HMM T:                                  4.864     4.864   0.3% |
   diagonalize:                             11.389    11.389   0.6% |
   rotate_psi:                              44.979    44.979   2.5% ||
  calc. matrices:                          462.641   154.119   8.7% |--|
   Apply H:                                308.521   299.089  16.9% |------|
    HMM T:                                   9.433     9.433   0.5% |
  diagonalize:                             157.181   157.181   8.9% |---|
  rotate_psi:                               84.089    84.089   4.7% |-|
 Density:                                  103.178     0.001   0.0% |
  Atomic density matrices:                   0.692     0.692   0.0% |
  Mix:                                      19.233    19.233   1.1% |
  Multipole moments:                         0.025     0.025   0.0% |
  Pseudo density:                           83.228    83.227   4.7% |-|
   Symmetrize density:                       0.001     0.001   0.0% |
 Hamiltonian:                              176.320     0.449   0.0% |
  Atomic:                                    0.014     0.013   0.0% |
   XC Correction:                            0.000     0.000   0.0% |
  Calculate atomic Hamiltonians:            13.592    13.592   0.8% |
  Communicate:                              11.830    11.830   0.7% |
  Poisson:                                   0.136     0.136   0.0% |
  XC 3D grid:                              150.301    51.619   2.9% ||
   VdW-DF integral:                         98.681     4.433   0.3% |
    Convolution:                            10.046    10.046   0.6% |
    FFT:                                     4.136     4.136   0.2% |
    gather:                                 37.824    37.824   2.1% ||
    hmm1:                                    2.994     2.994   0.2% |
    hmm2:                                    6.717     6.717   0.4% |
    iFFT:                                    4.153     4.153   0.2% |
    potential:                              28.378     1.026   0.1% |
     collect:                                4.292     4.292   0.2% |
     p1:                                     7.204     7.204   0.4% |
     p2:                                    10.971    10.971   0.6% |
     sum:                                    4.886     4.886   0.3% |
    splines:                                 0.000     0.000   0.0% |
 Orthonormalize:                             4.670     0.002   0.0% |
  calc_s_matrix:                             0.514     0.514   0.0% |
  inverse-cholesky:                          0.248     0.248   0.0% |
  projections:                               2.824     2.824   0.2% |
  rotate_psi_s:                              1.082     1.082   0.1% |
Set symmetry:                                0.000     0.000   0.0% |
Other:                                      12.234    12.234   0.7% |
-------------------------------------------------------------------
Total:                                              1771.657 100.0%

Memory usage: 1.41 GiB
Date: Tue May  6 12:19:51 2025
