
  ___ ___ ___ _ _ _  
 |   |   |_  | | | | 
 | | | | | . | | | | 
 |__ |  _|___|_____|  25.1.1b1
 |___|_|             

User:   dmapa@c077.nifl.fysik.dtu.dk
Date:   Tue May  6 17:50:51 2025
Arch:   x86_64
Pid:    127458
CWD:    /home/cat/dmapa/gpaw/dissads/tree/surfaces/BEEF-W/min_surf/relax
Python: 3.11.3
gpaw:   /home/cat/dmapa/bin/venv-asrlib/gpaw/gpaw (55eb60cdf0)
_gpaw:  /home/cat/dmapa/bin/venv-asrlib/gpaw/build/lib.linux-x86_64-skylake_el8-cpython-311/
        _gpaw.cpython-311-x86_64-linux-gnu.so (55eb60cdf0)
ase:    /home/cat/dmapa/bin/venv-asrlib/ase/ase (version 3.26.0b1-f4168b42a5)
numpy:  /home/modules/software/SciPy-bundle/2023.07-gfbf-2023a/lib/python3.11/site-packages/numpy (version 1.25.1)
scipy:  /home/modules/software/SciPy-bundle/2023.07-gfbf-2023a/lib/python3.11/site-packages/scipy (version 1.11.1)
libxc:  6.2.2
units:  Angstrom and eV
cores: 40
OpenMP: False
OMP_NUM_THREADS: 1

Input parameters:
  kpts: {size: [4, 3, 1]}
  mixer: {backend: pulay,
          beta: 0.02,
          method: separate,
          nmaxold: 5,
          weight: 50.0}
  mode: {ecut: 500,
         name: pw}
  spinpol: False
  symmetry: off
  xc: BEEF-vdW

System changes: positions, numbers, cell, pbc, initial_charges, initial_magmoms 

Initialize ...

species:
  W:
    name: Tungsten
    id: 3ed563b7d19992259c4d7db283f2ff78
    Z: 74.0
    valence: 14
    core: 60
    charge: 0.0
    file: /home/modules/software/GPAW-setups/24.11.0/W.PBE.gz
    compensation charges: {type: gauss,
                           rc: 0.40,
                           lmax: 2}
    cutoffs: {filter: 2.36,
              core: 3.02}
    projectors:
      #              energy  rcut
      - 5s(2.00)   -78.830   1.344
      - 6s(2.00)    -5.697   1.344
      - 5p(6.00)   -43.233   1.355
      - 6p(0.00)    -1.367   1.355
      - 5d(4.00)    -4.494   1.228
      -  d          22.717   1.228
  
    # Using partial waves for W as LCAO basis

Reference energy: -15795780.179582  # eV

Spin-paired calculation

Convergence criteria:
 Maximum [total energy] change in last 3 cyles: 0.0005 eV / valence electron
 Maximum integral of absolute [dens]ity change: 0.0001 electrons / valence electron
 Maximum integral of absolute [eigenst]ate change: 4e-08 eV^2 / valence electron
 Maximum number of scf [iter]ations: 333
 (Square brackets indicate name in SCF output, whereas a 'c' in
 the SCF output indicates the quantity has converged.)

Symmetries present (total): 1

  ( 1  0  0)
  ( 0  1  0)
  ( 0  0  1)

12 k-points: 4 x 3 x 1 Monkhorst-Pack grid
12 k-points in the irreducible part of the Brillouin zone
       k-points in crystal coordinates                weights
   0:    -0.37500000   -0.33333333    0.00000000          1/12
   1:    -0.37500000    0.00000000    0.00000000          1/12
   2:    -0.37500000    0.33333333    0.00000000          1/12
   3:    -0.12500000   -0.33333333    0.00000000          1/12
   4:    -0.12500000    0.00000000    0.00000000          1/12
   5:    -0.12500000    0.33333333    0.00000000          1/12
   6:     0.12500000   -0.33333333    0.00000000          1/12
   7:     0.12500000    0.00000000    0.00000000          1/12
   8:     0.12500000    0.33333333    0.00000000          1/12
   9:     0.37500000   -0.33333333    0.00000000          1/12
          ...
  11:     0.37500000    0.33333333    0.00000000          1/12

Wave functions: Plane wave expansion
  Cutoff energy: 500.000 eV
  Number of coefficients (min, max): 66058, 66133
  Pulay-stress correction: 0.000000 eV/Ang^3 (de/decut=0.000000)
  Using FFTW library
  ScaLapack parameters: grid=1x1, blocksize=None
  Wavefunction extrapolation:
    Improved wavefunction reuse through dual PAW basis 

Occupation numbers: Fermi-Dirac:
  width: 0.1000  # eV
 

Eigensolver
   Davidson(niter=2) 

Densities:
  Coarse grid: 50*48*160 grid
  Fine grid: 100*96*320 grid
  Total Charge: 0.000000 

Density mixing:
  Method: separate
  Backend: pulay
  Linear mixing parameter: 0.02
  old densities: 5
  Damping of long wavelength oscillations: 50 

Hamiltonian:
  XC and Coulomb potentials evaluated on a 100*96*320 grid
  Using the BEEF-vdW Exchange-Correlation functional
  External potential:
    NoExternalPotential
 

XC parameters: BEEF-vdW with 2 nearest neighbor stencil

Memory estimate:
  Process memory now: 1820.61 MiB
  Calculator: 180.30 MiB
    Density: 17.53 MiB
      Arrays: 7.62 MiB
      Localized functions: 6.99 MiB
      Mixer: 2.93 MiB
    Hamiltonian: 5.12 MiB
      Arrays: 4.98 MiB
      XC: 0.00 MiB
      Poisson: 0.00 MiB
      vbar: 0.14 MiB
    Wavefunctions: 157.64 MiB
      Arrays psit_nG: 92.95 MiB
      Eigensolver: 45.88 MiB
      Projections: 0.91 MiB
      Projectors: 2.27 MiB
      PW-descriptor: 15.63 MiB

Total number of cores used: 40
Parallelization over k-points: 4
Domain decomposition: 2 x 1 x 5

Number of atoms: 36
Number of atomic orbitals: 468
Number of bands in calculation: 307
Number of valence electrons: 504
Bands to converge: occupied

... initialized

Initializing position-dependent things.

Density initialized from atomic densities
Creating initial wave functions:
  307 bands from LCAO basis set

       .-----------------------.  
      /|                       |  
     / |                       |  
    /  |                       |  
   /   |                       |  
  /    |                       |  
 *     |                       |  
 |     |                       |  
 |     |                       |  
 |     |                       |  
 |     |                       |  
 |     |                       |  
 |     |                       |  
 |     |                       |  
 |     |                       |  
 |     |                       |  
 |     |                       |  
 |     | W       W        W    |  
 |     |                       |  
 |  W  |    W       W          |  
 |   WW|     W W     W W       |  
 |     |                       |  
 W     |WW      WW      W      |  
 |W    |  W      WW      W     |  
 |  W  |    W       W          |  
 |   W |     W       W         |  
 |     W       W      W        |  
 W     | W       W             |  
 |     |                       |  
 |     |                       |  
 |     |                       |  
 |     |                       |  
 |     |                       |  
 |     |                       |  
 |     |                       |  
 |     |                       |  
 |     |                       |  
 |     .-----------------------.  
 |    /                       /   
 |   /                       /    
 |  /                       /     
 | /                       /      
 |/                       /       
 *-----------------------*        

Positions:
   0 W      0.000000    0.000000   12.738944    ( 0.0000,  0.0000,  0.0000)
   1 W      3.197617    0.000000   12.738944    ( 0.0000,  0.0000,  0.0000)
   2 W      6.395233    0.000000   12.738944    ( 0.0000,  0.0000,  0.0000)
   3 W      1.598808    2.261056   12.738944    ( 0.0000,  0.0000,  0.0000)
   4 W      4.796425    2.261056   12.738944    ( 0.0000,  0.0000,  0.0000)
   5 W      7.994041    2.261056   12.738944    ( 0.0000,  0.0000,  0.0000)
   6 W      0.000000    4.522113   12.738944    ( 0.0000,  0.0000,  0.0000)
   7 W      3.197617    4.522113   12.738944    ( 0.0000,  0.0000,  0.0000)
   8 W      6.395233    4.522113   12.738944    ( 0.0000,  0.0000,  0.0000)
   9 W      1.598808    6.783169   12.738944    ( 0.0000,  0.0000,  0.0000)
  10 W      4.796425    6.783169   12.738944    ( 0.0000,  0.0000,  0.0000)
  11 W      7.994041    6.783169   12.738944    ( 0.0000,  0.0000,  0.0000)
  12 W      0.000000    2.261056   15.000000    ( 0.0000,  0.0000,  0.0000)
  13 W      3.197617    2.261056   15.000000    ( 0.0000,  0.0000,  0.0000)
  14 W      6.395233    2.261056   15.000000    ( 0.0000,  0.0000,  0.0000)
  15 W      1.598808    4.522113   15.000000    ( 0.0000,  0.0000,  0.0000)
  16 W      4.796425    4.522113   15.000000    ( 0.0000,  0.0000,  0.0000)
  17 W      7.994041    4.522113   15.000000    ( 0.0000,  0.0000,  0.0000)
  18 W      0.000000    6.783169   15.000000    ( 0.0000,  0.0000,  0.0000)
  19 W      3.197617    6.783169   15.000000    ( 0.0000,  0.0000,  0.0000)
  20 W      6.395233    6.783169   15.000000    ( 0.0000,  0.0000,  0.0000)
  21 W      1.598808    9.044225   15.000000    ( 0.0000,  0.0000,  0.0000)
  22 W      4.796425    9.044225   15.000000    ( 0.0000,  0.0000,  0.0000)
  23 W      7.994041    9.044225   15.000000    ( 0.0000,  0.0000,  0.0000)
  24 W     -0.000000    0.000000   17.252031    ( 0.0000,  0.0000,  0.0000)
  25 W      3.197617    0.000000   17.252031    ( 0.0000,  0.0000,  0.0000)
  26 W      6.395233    0.000000   17.252031    ( 0.0000,  0.0000,  0.0000)
  27 W      1.598808    2.261056   17.252031    ( 0.0000,  0.0000,  0.0000)
  28 W      4.796425    2.261056   17.252031    ( 0.0000,  0.0000,  0.0000)
  29 W      7.994042    2.261056   17.252031    ( 0.0000,  0.0000,  0.0000)
  30 W      0.000000    4.522113   17.252031    ( 0.0000,  0.0000,  0.0000)
  31 W      3.197617    4.522113   17.252031    ( 0.0000,  0.0000,  0.0000)
  32 W      6.395233    4.522113   17.252031    ( 0.0000,  0.0000,  0.0000)
  33 W      1.598808    6.783169   17.252031    ( 0.0000,  0.0000,  0.0000)
  34 W      4.796425    6.783169   17.252031    ( 0.0000,  0.0000,  0.0000)
  35 W      7.994042    6.783169   17.252031    ( 0.0000,  0.0000,  0.0000)

Unit cell:
           periodic     x           y           z      points  spacing
  1. axis:    yes    9.592850    0.000000    0.000000    50     0.1919
  2. axis:    yes    0.000000    9.044225    0.000000    48     0.1884
  3. axis:    no     0.000000    0.000000   30.000000   160     0.1875

  Lengths:   9.592850   9.044225  30.000000
  Angles:   90.000000  90.000000  90.000000

Effective grid spacing dv^(1/3) = 0.1893

     iter     time        total  log10-change:
                         energy   eigst   dens
iter:   1 17:52:23 -11063.220391
iter:   2 17:52:46 -11061.576147   -1.38  -1.21
iter:   3 17:53:09 -11056.465423   -1.10  -1.22
iter:   4 17:53:33 -11055.505437   -1.85  -1.31
iter:   5 17:53:56 -11052.409912   -1.24  -1.34
iter:   6 17:54:20 -11052.492904   -1.58  -1.61
iter:   7 17:54:43 -11052.417277c  -1.35  -1.65
iter:   8 17:55:06 -11052.125129   -2.18  -1.92
iter:   9 17:55:30 -11052.404020   -2.48  -2.20
iter:  10 17:55:53 -11051.991295   -2.08  -2.09
iter:  11 17:56:16 -11051.890024   -2.80  -2.41
iter:  12 17:56:40 -11051.893201c  -3.38  -3.03
iter:  13 17:57:03 -11051.893035c  -3.96  -3.08
iter:  14 17:57:26 -11051.892735c  -4.28  -3.11
iter:  15 17:57:50 -11051.893370c  -4.37  -3.15
iter:  16 17:58:13 -11051.891211c  -4.68  -3.18
iter:  17 17:58:36 -11051.890761c  -4.68  -3.37
iter:  18 17:59:00 -11051.890814c  -5.20  -3.57
iter:  19 17:59:23 -11051.890847c  -5.43  -3.59
iter:  20 17:59:46 -11051.890700c  -5.37  -3.60
iter:  21 18:00:10 -11051.890775c  -5.75  -3.71
iter:  22 18:00:33 -11051.890943c  -5.86  -3.73
iter:  23 18:00:56 -11051.891057c  -6.18  -3.75
iter:  24 18:01:20 -11051.891051c  -6.62  -3.83
iter:  25 18:01:43 -11051.891048c  -6.18  -3.83
iter:  26 18:02:06 -11051.891130c  -6.26  -3.92
iter:  27 18:02:30 -11051.891090c  -7.05  -4.07c
iter:  28 18:02:53 -11051.891083c  -7.39  -4.08c
iter:  29 18:03:17 -11051.891157c  -6.72  -4.10c
iter:  30 18:03:40 -11051.891118c  -7.19  -4.22c
iter:  31 18:04:04 -11051.891071c  -7.20  -4.27c
iter:  32 18:04:27 -11051.891098c  -7.67c -4.39c

Converged after 32 iterations.

Dipole moment: (0.000000, -0.000000, 0.007508) |e|*Ang

Energy contributions relative to reference atoms: (reference = -15795780.179582)

Kinetic:       +724.273001
Potential:     -779.580869
External:        +0.000000
XC:            -10997.180909
Entropy (-ST):   -1.198854
Local:           +1.197105
SIC:             +0.000000
--------------------------
Free energy:   -11052.490525
Extrapolated:  -11051.891098

Showing only first 2 kpts
 Kpt  Band  Eigenvalues  Occupancy
  0   250     -0.70242    0.60935
  0
Forces in eV/Ang:
  0 W    -0.00000    0.00000    0.63175
  1 W     0.00004    0.00000    0.63179
  2 W    -0.00004    0.00000    0.63179
  3 W    -0.00004   -0.00000    0.63179
  4 W     0.00000    0.00000    0.63175
  5 W     0.00004   -0.00000    0.63179
  6 W     0.00000    0.00000    0.63175
  7 W     0.00004    0.00000    0.63179
  8 W    -0.00004    0.00000    0.63179
  9 W    -0.00004    0.00000    0.63179
 10 W     0.00000   -0.00000    0.63175
 11 W     0.00004    0.00000    0.63179
 12 W     0.00000   -0.00000    0.00000
 13 W     0.00004    0.00000    0.00000
 14 W    -0.00004    0.00000    0.00000
 15 W    -0.00004    0.00000    0.00000
 16 W    -0.00000    0.00000    0.00000
 17 W     0.00004    0.00000    0.00000
 18 W     0.00000    0.00000    0.00000
 19 W     0.00004   -0.00000    0.00000
 20 W    -0.00004   -0.00000    0.00000
 21 W    -0.00004    0.00000    0.00000
 22 W     0.00000    0.00000    0.00000
 23 W     0.00004    0.00000    0.00000
 24 W    -0.00000    0.00000   -0.63175
 25 W     0.00004    0.00000   -0.63179
 26 W    -0.00004    0.00000   -0.63179
 27 W    -0.00004   -0.00000   -0.63179
 28 W     0.00000    0.00000   -0.63175
 29 W     0.00004   -0.00000   -0.63179
 30 W     0.00000    0.00000   -0.63175
 31 W     0.00004    0.00000   -0.63179
 32 W    -0.00004    0.00000   -0.63179
 33 W    -0.00004    0.00000   -0.63179
 34 W     0.00000   -0.00000   -0.63175
 35 W     0.00004    0.00000   -0.63179

System changes: positions 

Initializing position-dependent things.

Timing:                              incl.     excl.
-----------------------------------------------------------
Forces:                              2.924     2.924   0.1% |
Hamiltonian:                         6.672     0.009   0.0% |
 Atomic:                             0.000     0.000   0.0% |
  XC Correction:                     0.000     0.000   0.0% |
 Calculate atomic Hamiltonians:      0.266     0.266   0.0% |
 Communicate:                        0.148     0.148   0.0% |
 Initialize Hamiltonian:             0.001     0.001   0.0% |
 Poisson:                            0.003     0.003   0.0% |
 XC 3D grid:                         6.245     0.570   0.0% |
  VdW-DF integral:                   5.675     0.099   0.0% |
   Convolution:                      0.191     0.191   0.0% |
   FFT:                              0.075     0.075   0.0% |
   gather:                           1.161     1.161   0.0% |
   hmm1:                             0.035     0.035   0.0% |
   hmm2:                             0.110     0.110   0.0% |
   iFFT:                             0.083     0.083   0.0% |
   potential:                        0.576     0.014   0.0% |
    collect:                         0.090     0.090   0.0% |
    p1:                              0.137     0.137   0.0% |
    p2:                              0.223     0.223   0.0% |
    sum:                             0.112     0.112   0.0% |
   splines:                          3.344     3.344   0.1% |
LCAO initialization:                23.849     0.039   0.0% |
 LCAO eigensolver:                   3.451     0.001   0.0% |
  Calculate projections:             0.000     0.000   0.0% |
  DenseAtomicCorrection:             0.000     0.000   0.0% |
  Distribute overlap matrix:         3.254     3.254   0.1% |
  Orbital Layouts:                   0.193     0.193   0.0% |
  Potential matrix:                  0.000     0.000   0.0% |
  Sum over cells:                    0.003     0.003   0.0% |
 LCAO to grid:                      19.833    19.833   0.8% |
 Set positions (LCAO WFS):           0.526     0.459   0.0% |
  Basic WFS set positions:           0.007     0.007   0.0% |
  Basis functions set positions:     0.000     0.000   0.0% |
  P tci:                             0.000     0.000   0.0% |
  ST tci:                            0.042     0.042   0.0% |
  mktci:                             0.017     0.017   0.0% |
PWDescriptor:                        0.416     0.416   0.0% |
Redistribute:                        0.000     0.000   0.0% |
SCF-cycle:                         303.167     0.047   0.0% |
 Davidson:                         188.824    34.764   1.4% ||
  Apply H:                          19.712    19.138   0.8% |
   HMM T:                            0.574     0.574   0.0% |
  Subspace diag:                    32.419     0.003   0.0% |
   calc_h_matrix:                   23.392     3.806   0.2% |
    Apply H:                        19.585    18.970   0.8% |
     HMM T:                          0.615     0.615   0.0% |
   diagonalize:                      1.952     1.952   0.1% |
   rotate_psi:                       7.073     7.073   0.3% |
  calc. matrices:                   64.065    24.880   1.0% |
   Apply H:                         39.185    38.017   1.5% ||
    HMM T:                           1.168     1.168   0.0% |
  diagonalize:                      24.088    24.088   1.0% |
  rotate_psi:                       13.775    13.775   0.5% |
 Density:                           25.275     0.001   0.0% |
  Atomic density matrices:           0.150     0.150   0.0% |
  Mix:                               9.400     9.400   0.4% |
  Multipole moments:                 0.010     0.010   0.0% |
  Pseudo density:                   15.714    10.713   0.4% |
   Symmetrize density:               5.001     5.001   0.2% |
 Hamiltonian:                       88.590     0.248   0.0% |
  Atomic:                            0.006     0.006   0.0% |
   XC Correction:                    0.000     0.000   0.0% |
  Calculate atomic Hamiltonians:     7.811     7.811   0.3% |
  Communicate:                       4.090     4.090   0.2% |
  Poisson:                           0.081     0.081   0.0% |
  XC 3D grid:                       76.355    16.490   0.7% |
   VdW-DF integral:                 59.865     2.899   0.1% |
    Convolution:                     5.728     5.728   0.2% |
    FFT:                             2.208     2.208   0.1% |
    gather:                         24.281    24.281   1.0% |
    hmm1:                            1.672     1.672   0.1% |
    hmm2:                            3.597     3.597   0.1% |
    iFFT:                            2.413     2.413   0.1% |
    potential:                      17.067     0.486   0.0% |
     collect:                        2.664     2.664   0.1% |
     p1:                             4.165     4.165   0.2% |
     p2:                             6.565     6.565   0.3% |
     sum:                            3.187     3.187   0.1% |
    splines:                         0.000     0.000   0.0% |
 Orthonormalize:                     0.432     0.000   0.0% |
  calc_s_matrix:                     0.058     0.058   0.0% |
  inverse-cholesky:                  0.023     0.023   0.0% |
  projections:                       0.235     0.235   0.0% |
  rotate_psi_s:                      0.115     0.115   0.0% |
Set symmetry:                        0.002     0.002   0.0% |
Other:                            2179.633  2179.633  86.6% |----------------------------------|
-----------------------------------------------------------
Total:                                      2516.664 100.0%

Memory usage: 1.78 GiB
Date: Tue May  6 18:27:05 2025
2914c  -6.43  -4.15c
iter:  13 18:09:39 -11051.942905c  -6.32  -4.37c
iter:  14 18:10:02 -11051.942936c  -7.11  -4.35c
iter:  15 18:10:25 -11051.942960c  -7.02  -4.51c
iter:  16 18:10:49 -11051.942944c  -7.71c -4.65c

Converged after 16 iterations.

Dipole moment: (-0.000000, -0.000000, 0.012732) |e|*Ang

Energy contributions relative to reference atoms: (reference = -15795780.179582)

Kinetic:       +727.885608
Potential:     -782.527342
External:        +0.000000
XC:            -10998.019805
Entropy (-ST):   -1.197752
Local:           +1.317470
SIC:             +0.000000
--------------------------
Free energy:   -11052.541819
Extrapolated:  -11051.942944

Showing only first 2 kpts
 Kpt  Band  Eigenvalues  Occupancy
  0   250     -0.70122    0.60880
  0   251     -0.70107    0.60817
  0   252     -0.68877    0.55737
  0   253     -0.57159    0.21381

  1   250     -0.83996    1.27334
  1   251     -0.83996    1.27334
  1   252     -0.65749    0.44067
  1   253     -0.61740    0.31828


Fermi level: -0.78386

No gap
No difference between direct/indirect transitions

Forces in eV/Ang:
  0 W    -0.00000    0.00000    0.61679
  1 W     0.00008   -0.00000    0.61680
  2 W    -0.00008   -0.00000    0.61680
  3 W    -0.00008    0.00000    0.61680
  4 W     0.00000   -0.00000    0.61679
  5 W     0.00008    0.00000    0.61680
  6 W    -0.00000   -0.00000    0.61679
  7 W     0.00008    0.00000    0.61680
  8 W    -0.00008    0.00000    0.61680
  9 W    -0.00008   -0.00000    0.61680
 10 W     0.00000    0.00000    0.61679
 11 W     0.00008   -0.00000    0.61680
 12 W     0.00000    0.00000   -0.11982
 13 W     0.00010    0.00000   -0.11981
 14 W    -0.00010    0.00000   -0.11981
 15 W    -0.00010    0.00000   -0.11981
 16 W     0.00000    0.00000   -0.11982
 17 W     0.00010    0.00000   -0.11981
 18 W    -0.00000   -0.00000   -0.11982
 19 W     0.00010   -0.00000   -0.11981
 20 W    -0.00010   -0.00000   -0.11981
 21 W    -0.00010   -0.00000   -0.11981
 22 W    -0.00000   -0.00000   -0.11982
 23 W     0.00010   -0.00000   -0.11981
 24 W    -0.00000   -0.00000   -0.50240
 25 W     0.00014   -0.00000   -0.50242
 26 W    -0.00014   -0.00000   -0.50242
 27 W    -0.00014    0.00000   -0.50242
 28 W    -0.00000    0.00000   -0.50240
 29 W     0.00014    0.00000   -0.50242
 30 W    -0.00000    0.00000   -0.50240
 31 W     0.00014    0.00000   -0.50242
 32 W    -0.00014   -0.00000   -0.50242
 33 W    -0.00014   -0.00000   -0.50242
 34 W     0.00000   -0.00000   -0.50240
 35 W     0.00014   -0.00000   -0.50242

System changes: positions 

Initializing position-dependent things.

Density initialized from wave functions
       .-----------------------.  
      /|                       |  
     / |                       |  
    /  |                       |  
   /   |                       |  
  /    |                       |  
 *     |                       |  
 |     |                       |  
 |     |                       |  
 |     |                       |  
 |     |                       |  
 |     |                       |  
 |     |                       |  
 |     |                       |  
 |     |                       |  
 |     |                       |  
 |     |       W       W       W  
 |     | W        W       W    |  
 |     |                       |  
 |     |    W       W       W  |  
 |   WW|     WW      W W       |  
 |     |                       |  
 |     |W       W       W      |  
 |W    |  W      WW      W     |  
 |  W  |    W       W          |  
 |   W |     W       W         |  
 |     W       W      W        |  
 W     | W       W             |  
 |     |                       |  
 |     |                       |  
 |     |                       |  
 |     |                       |  
 |     |                       |  
 |     |                       |  
 |     |                       |  
 |     |                       |  
 |     |                       |  
 |     .-----------------------.  
 |    /                       /   
 |   /                       /    
 |  /                       /     
 | /                       /      
 |/                       /       
 *-----------------------*        

Positions:
   0 W      0.000000    0.000000   12.738944    ( 0.0000,  0.0000,  0.0000)
   1 W      3.197617    0.000000   12.738944    ( 0.0000,  0.0000,  0.0000)
   2 W      6.395233    0.000000   12.738944    ( 0.0000,  0.0000,  0.0000)
   3 W      1.598808    2.261056   12.738944    ( 0.0000,  0.0000,  0.0000)
   4 W      4.796425    2.261056   12.738944    ( 0.0000,  0.0000,  0.0000)
   5 W      7.994041    2.261056   12.738944    ( 0.0000,  0.0000,  0.0000)
   6 W      0.000000    4.522113   12.738944    ( 0.0000,  0.0000,  0.0000)
   7 W      3.197617    4.522113   12.738944    ( 0.0000,  0.0000,  0.0000)
   8 W      6.395233    4.522113   12.738944    ( 0.0000,  0.0000,  0.0000)
   9 W      1.598808    6.783169   12.738944    ( 0.0000,  0.0000,  0.0000)
  10 W      4.796425    6.783169   12.738944    ( 0.0000,  0.0000,  0.0000)
  11 W      7.994041    6.783169   12.738944    ( 0.0000,  0.0000,  0.0000)
  12 W      0.000000    2.261056   15.000000    ( 0.0000,  0.0000,  0.0000)
  13 W      3.197617    2.261056   15.000000    ( 0.0000,  0.0000,  0.0000)
  14 W      6.395233    2.261056   15.000000    ( 0.0000,  0.0000,  0.0000)
  15 W      1.598808    4.522113   15.000000    ( 0.0000,  0.0000,  0.0000)
  16 W      4.796425    4.522113   15.000000    ( 0.0000,  0.0000,  0.0000)
  17 W      7.994041    4.522113   15.000000    ( 0.0000,  0.0000,  0.0000)
  18 W      0.000000    6.783169   15.000000    ( 0.0000,  0.0000,  0.0000)
  19 W      3.197617    6.783169   15.000000    ( 0.0000,  0.0000,  0.0000)
  20 W      6.395233    6.783169   15.000000    ( 0.0000,  0.0000,  0.0000)
  21 W      1.598808    9.044225   15.000000    ( 0.0000,  0.0000,  0.0000)
  22 W      4.796425    9.044225   15.000000    ( 0.0000,  0.0000,  0.0000)
  23 W      7.994041    9.044225   15.000000    ( 0.0000,  0.0000,  0.0000)
  24 W     -0.000000   -0.000000   17.176626    ( 0.0000,  0.0000,  0.0000)
  25 W      3.197634   -0.000000   17.176628    ( 0.0000,  0.0000,  0.0000)
  26 W      6.395216   -0.000000   17.176628    ( 0.0000,  0.0000,  0.0000)
  27 W      1.598791    2.261056   17.176628    ( 0.0000,  0.0000,  0.0000)
  28 W      4.796425    2.261056   17.176626    ( 0.0000,  0.0000,  0.0000)
  29 W      7.994059    2.261056   17.176628    ( 0.0000,  0.0000,  0.0000)
  30 W     -0.000000    4.522113   17.176626    ( 0.0000,  0.0000,  0.0000)
  31 W      3.197634    4.522113   17.176628    ( 0.0000,  0.0000,  0.0000)
  32 W      6.395216    4.522113   17.176628    ( 0.0000,  0.0000,  0.0000)
  33 W      1.598791    6.783169   17.176628    ( 0.0000,  0.0000,  0.0000)
  34 W      4.796425    6.783169   17.176626    ( 0.0000,  0.0000,  0.0000)
  35 W      7.994059    6.783169   17.176628    ( 0.0000,  0.0000,  0.0000)

Unit cell:
           periodic     x           y           z      points  spacing
  1. axis:    yes    9.592850    0.000000    0.000000    50     0.1919
  2. axis:    yes    0.000000    9.044225    0.000000    48     0.1884
  3. axis:    no     0.000000    0.000000   30.000000   160     0.1875

  Lengths:   9.592850   9.044225  30.000000
  Angles:   90.000000  90.000000  90.000000

Effective grid spacing dv^(1/3) = 0.1893

     iter     time        total  log10-change:
                         energy   eigst   dens
iter:   1 18:11:19 -11056.446053   -0.97
iter:   2 18:11:43 -11054.822580   -2.40  -1.62
iter:   3 18:12:06 -11052.692378   -1.79  -1.72
iter:   4 18:12:29 -11052.341446   -1.88  -2.08
iter:   5 18:12:53 -11052.191682   -2.56  -2.26
iter:   6 18:13:16 -11052.140736c  -3.18  -2.48
iter:   7 18:13:39 -11052.136096c  -3.72  -2.71
iter:   8 18:14:03 -11052.152241c  -3.37  -2.80
iter:   9 18:14:26 -11052.134054c  -3.46  -2.70
iter:  10 18:14:49 -11052.130832c  -4.35  -3.07
iter:  11 18:15:12 -11052.130170c  -4.88  -3.19
iter:  12 18:15:36 -11052.129905c  -4.80  -3.22
iter:  13 18:16:00 -11052.129863c  -4.78  -3.41
iter:  14 18:16:23 -11052.129578c  -5.29  -3.61
iter:  15 18:16:46 -11052.129636c  -5.78  -3.67
iter:  16 18:17:09 -11052.129691c  -5.24  -3.67
iter:  17 18:17:33 -11052.129329c  -5.54  -3.77
iter:  18 18:17:56 -11052.129301c  -6.22  -4.05c
iter:  19 18:18:19 -11052.129193c  -6.27  -4.11c
iter:  20 18:18:43 -11052.129133c  -6.56  -4.20c
iter:  21 18:19:06 -11052.129208c  -6.94  -4.22c
iter:  22 18:19:29 -11052.129193c  -6.79  -4.35c
iter:  23 18:19:53 -11052.129167c  -7.10  -4.76c
iter:  24 18:20:16 -11052.129169c  -7.64c -4.88c

Converged after 24 iterations.

Dipole moment: (0.000000, -0.000000, 0.064317) |e|*Ang

Energy contributions relative to reference atoms: (reference = -15795780.179582)

Kinetic:       +781.226075
Potential:     -827.785956
External:        +0.000000
XC:            -11006.333759
Entropy (-ST):   -1.191207
Local:           +1.360074
SIC:             +0.000000
--------------------------
Free energy:   -11052.724772
Extrapolated:  -11052.129169

Showing only first 2 kpts
 Kpt  Band  Eigenvalues  Occupancy
  0   250     -0.74326    0.86357
  0   251     -0.68579    0.59916
  0   252     -0.67044    0.53677
  0   253     -0.60451    0.31896

  1   250     -0.85449    1.39595
  1   251     -0.85449    1.39595
  1   252     -0.63467    0.40830
  1   253     -0.56921    0.23525


Fermi level: -0.77072

No gap
No difference between direct/indirect transitions

Forces in eV/Ang:
  0 W     0.00000    0.00000    0.56288
  1 W     0.00003    0.00000    0.56288
  2 W    -0.00003    0.00000    0.56288
  3 W    -0.00003    0.00000    0.56288
  4 W    -0.00000    0.00000    0.56288
  5 W     0.00003    0.00000    0.56288
  6 W    -0.00000   -0.00000    0.56288
  7 W     0.00003    0.00000    0.56288
  8 W    -0.00003   -0.00000    0.56288
  9 W    -0.00003   -0.00000    0.56288
 10 W     0.00000   -0.00000    0.56288
 11 W     0.00003   -0.00000    0.56288
 12 W    -0.00000    0.00000   -0.62627
 13 W    -0.00001    0.00000   -0.62622
 14 W     0.00001    0.00000   -0.62622
 15 W     0.00001    0.00000   -0.62622
 16 W     0.00000    0.00000   -0.62627
 17 W    -0.00001    0.00000   -0.62622
 18 W    -0.00000   -0.00000   -0.62627
 19 W    -0.00001   -0.00000   -0.62622
 20 W     0.00001   -0.00000   -0.62622
 21 W     0.00001   -0.00000   -0.62622
 22 W     0.00000   -0.00000   -0.62627
 23 W    -0.00001   -0.00000   -0.62622
 24 W     0.00000   -0.00000    0.06725
 25 W    -0.00025   -0.00000    0.06728
 26 W     0.00025   -0.00000    0.06728
 27 W     0.00025    0.00000    0.06728
 28 W    -0.00000    0.00000    0.06725
 29 W    -0.00025    0.00000    0.06728
 30 W     0.00000    0.00000    0.06726
 31 W    -0.00025    0.00000    0.06728
 32 W     0.00025    0.00000    0.06728
 33 W     0.00025   -0.00000    0.06728
 34 W    -0.00000   -0.00000    0.06726
 35 W    -0.00025   -0.00000    0.06728

System changes: positions 

Initializing position-dependent things.

Density initialized from wave functions
       .-----------------------.  
      /|                       |  
     / |                       |  
    /  |                       |  
   /   |                       |  
  /    |                       |  
 *     |                       |  
 |     |                       |  
 |     |                       |  
 |     |                       |  
 |     |                       |  
 |     |                       |  
 |     |                       |  
 |     |                       |  
 |     |                       |  
 |     |                       |  
 |     W       W       W       |  
 |     | W       W        W    |  
 |     |                       |  
 |  W  |    W       W          |  
 |   WW|     W W     W W       |  
 |     |                       |  
 |     |W       W       W      |  
 |W    |  W      WW      W     |  
 |  W  |    W       W          |  
 |   W |     W       W         |  
 |     W       W      W        |  
 W     | W       W             |  
 |     |                       |  
 |     |                       |  
 |     |                       |  
 |     |                       |  
 |     |                       |  
 |     |                       |  
 |     |                       |  
 |     |                       |  
 |     |                       |  
 |     .-----------------------.  
 |    /                       /   
 |   /                       /    
 |  /                       /     
 | /                       /      
 |/                       /       
 *-----------------------*        

Positions:
   0 W      0.000000    0.000000   12.738944    ( 0.0000,  0.0000,  0.0000)
   1 W      3.197617    0.000000   12.738944    ( 0.0000,  0.0000,  0.0000)
   2 W      6.395233    0.000000   12.738944    ( 0.0000,  0.0000,  0.0000)
   3 W      1.598808    2.261056   12.738944    ( 0.0000,  0.0000,  0.0000)
   4 W      4.796425    2.261056   12.738944    ( 0.0000,  0.0000,  0.0000)
   5 W      7.994041    2.261056   12.738944    ( 0.0000,  0.0000,  0.0000)
   6 W      0.000000    4.522113   12.738944    ( 0.0000,  0.0000,  0.0000)
   7 W      3.197617    4.522113   12.738944    ( 0.0000,  0.0000,  0.0000)
   8 W      6.395233    4.522113   12.738944    ( 0.0000,  0.0000,  0.0000)
   9 W      1.598808    6.783169   12.738944    ( 0.0000,  0.0000,  0.0000)
  10 W      4.796425    6.783169   12.738944    ( 0.0000,  0.0000,  0.0000)
  11 W      7.994041    6.783169   12.738944    ( 0.0000,  0.0000,  0.0000)
  12 W      0.000000    2.261056   15.000000    ( 0.0000,  0.0000,  0.0000)
  13 W      3.197617    2.261056   15.000000    ( 0.0000,  0.0000,  0.0000)
  14 W      6.395233    2.261056   15.000000    ( 0.0000,  0.0000,  0.0000)
  15 W      1.598808    4.522113   15.000000    ( 0.0000,  0.0000,  0.0000)
  16 W      4.796425    4.522113   15.000000    ( 0.0000,  0.0000,  0.0000)
  17 W      7.994041    4.522113   15.000000    ( 0.0000,  0.0000,  0.0000)
  18 W      0.000000    6.783169   15.000000    ( 0.0000,  0.0000,  0.0000)
  19 W      3.197617    6.783169   15.000000    ( 0.0000,  0.0000,  0.0000)
  20 W      6.395233    6.783169   15.000000    ( 0.0000,  0.0000,  0.0000)
  21 W      1.598808    9.044225   15.000000    ( 0.0000,  0.0000,  0.0000)
  22 W      4.796425    9.044225   15.000000    ( 0.0000,  0.0000,  0.0000)
  23 W      7.994041    9.044225   15.000000    ( 0.0000,  0.0000,  0.0000)
  24 W      0.000000   -0.000000   17.184582    ( 0.0000,  0.0000,  0.0000)
  25 W      3.197629   -0.000000   17.184584    ( 0.0000,  0.0000,  0.0000)
  26 W      6.395221   -0.000000   17.184584    ( 0.0000,  0.0000,  0.0000)
  27 W      1.598796    2.261056   17.184584    ( 0.0000,  0.0000,  0.0000)
  28 W      4.796425    2.261056   17.184582    ( 0.0000,  0.0000,  0.0000)
  29 W      7.994053    2.261056   17.184584    ( 0.0000,  0.0000,  0.0000)
  30 W      0.000000    4.522113   17.184582    ( 0.0000,  0.0000,  0.0000)
  31 W      3.197629    4.522113   17.184584    ( 0.0000,  0.0000,  0.0000)
  32 W      6.395221    4.522113   17.184584    ( 0.0000,  0.0000,  0.0000)
  33 W      1.598796    6.783169   17.184584    ( 0.0000,  0.0000,  0.0000)
  34 W      4.796425    6.783169   17.184582    ( 0.0000,  0.0000,  0.0000)
  35 W      7.994053    6.783169   17.184584    ( 0.0000,  0.0000,  0.0000)

Unit cell:
           periodic     x           y           z      points  spacing
  1. axis:    yes    9.592850    0.000000    0.000000    50     0.1919
  2. axis:    yes    0.000000    9.044225    0.000000    48     0.1884
  3. axis:    no     0.000000    0.000000   30.000000   160     0.1875

  Lengths:   9.592850   9.044225  30.000000
  Angles:   90.000000  90.000000  90.000000

Effective grid spacing dv^(1/3) = 0.1893

     iter     time        total  log10-change:
                         energy   eigst   dens
iter:   1 18:20:47 -11052.193408   -2.79
iter:   2 18:21:10 -11052.168302   -4.17  -2.56
iter:   3 18:21:34 -11052.141203c  -3.78  -2.62
iter:   4 18:21:57 -11052.135461c  -3.53  -2.89
iter:   5 18:22:20 -11052.132751c  -4.58  -3.17
iter:   6 18:22:44 -11052.131671c  -4.46  -3.23
iter:   7 18:23:07 -11052.131875c  -5.26  -3.71
iter:   8 18:23:30 -11052.132050c  -5.07  -3.72
iter:   9 18:23:54 -11052.131646c  -5.19  -3.58
iter:  10 18:24:17 -11052.131597c  -6.16  -4.09c
iter:  11 18:24:40 -11052.131590c  -6.71  -4.12c
iter:  12 18:25:04 -11052.131570c  -6.20  -4.14c
iter:  13 18:25:27 -11052.131557c  -6.68  -4.40c
iter:  14 18:25:50 -11052.131561c  -7.37  -4.54c
iter:  15 18:26:14 -11052.131589c  -6.92  -4.58c
iter:  16 18:26:37 -11052.131578c  -7.00  -4.59c
iter:  17 18:27:01 -11052.131577c  -7.89c -5.01c

Converged after 17 iterations.

Dipole moment: (0.000003, -0.000007, 0.059781) |e|*Ang

Energy contributions relative to reference atoms: (reference = -15795780.179582)

Kinetic:       +774.601533
Potential:     -822.176281
External:        +0.000000
XC:            -11005.316653
Entropy (-ST):   -1.192025
Local:           +1.355836
SIC:             +0.000000
--------------------------
Free energy:   -11052.727590
Extrapolated:  -11052.131577

Showing only first 2 kpts
 Kpt  Band  Eigenvalues  Occupancy
  0   250     -0.73681    0.82846
  0   251     -0.68660    0.59944
  0   252     -0.67185    0.53944
  0   253     -0.59997    0.30505

  1   250     -0.85339    1.38818
  1   251     -0.85339    1.38818
  1   252     -0.63615    0.41074
  1   253     -0.57428    0.24440


Fermi level: -0.77146

No gap
No difference between direct/indirect transitions

Forces in eV/Ang:
  0 W     0.00000   -0.00001    0.56886
  1 W    -0.00024   -0.00001    0.56838
  2 W     0.00024   -0.00001    0.56838
  3 W     0.00024    0.00006    0.56835
  4 W    -0.00000    0.00006    0.56883
  5 W    -0.00024    0.00006    0.56835
  6 W     0.00000    0.00001    0.56880
  7 W    -0.00024    0.00001    0.56832
  8 W     0.00024    0.00001    0.56832
  9 W     0.00024   -0.00006    0.56834
 10 W    -0.00000   -0.00006    0.56882
 11 W    -0.00024   -0.00006    0.56834
 12 W     0.00000    0.00005   -0.56246
 13 W    -0.00013    0.00005   -0.56235
 14 W     0.00013    0.00005   -0.56235
 15 W     0.00013    0.00001   -0.56234
 16 W    -0.00000    0.00001   -0.56245
 17 W    -0.00013    0.00001   -0.56234
 18 W     0.00000   -0.00005   -0.56245
 19 W    -0.00013   -0.00005   -0.56234
 20 W     0.00013   -0.00005   -0.56235
 21 W     0.00013   -0.00001   -0.56235
 22 W    -0.00000   -0.00001   -0.56246
 23 W    -0.00013   -0.00001   -0.56235
 24 W     0.00001   -0.00002   -0.00591
 25 W    -0.00021   -0.00001   -0.00592
 26 W     0.00020   -0.00001   -0.00593
 27 W     0.00021    0.00008   -0.00589
 28 W    -0.00000    0.00008   -0.00588
 29 W    -0.00020    0.00008   -0.00590
 30 W     0.00000    0.00002   -0.00583
 31 W    -0.00020    0.00001   -0.00584
 32 W     0.00020    0.00001   -0.00585
 33 W     0.00021   -0.00008   -0.00587
 34 W    -0.00001   -0.00008   -0.00587
 35 W    -0.00020   -0.00008   -0.00588

Timing:                                      incl.     excl.
-------------------------------------------------------------------
Density initialized from wave functions:     4.310     4.310   0.2% |
 Symmetrize density:                         0.000     0.000   0.0% |
Forces:                                     18.422    18.422   0.8% |
Hamiltonian:                                15.899     0.035   0.0% |
 Atomic:                                     0.001     0.001   0.0% |
  XC Correction:                             0.000     0.000   0.0% |
 Calculate atomic Hamiltonians:              1.078     1.078   0.0% |
 Communicate:                                0.562     0.562   0.0% |
 Initialize Hamiltonian:                     0.001     0.001   0.0% |
 Poisson:                                    0.011     0.011   0.0% |
 XC 3D grid:                                14.211     2.309   0.1% |
  VdW-DF integral:                          11.902     0.384   0.0% |
   Convolution:                              0.808     0.808   0.0% |
   FFT:                                      0.343     0.343   0.0% |
   gather:                                   3.559     3.559   0.2% |
   hmm1:                                     0.215     0.215   0.0% |
   hmm2:                                     0.546     0.546   0.0% |
   iFFT:                                     0.340     0.340   0.0% |
   potential:                                2.365     0.075   0.0% |
    collect:                                 0.364     0.364   0.0% |
    p1:                                      0.588     0.588   0.0% |
    p2:                                      0.907     0.907   0.0% |
    sum:                                     0.431     0.431   0.0% |
   splines:                                  3.341     3.341   0.2% |
LCAO initialization:                        63.689     0.040   0.0% |
 LCAO eigensolver:                           3.955     0.002   0.0% |
  Calculate projections:                     0.000     0.000   0.0% |
  DenseAtomicCorrection:                     0.000     0.000   0.0% |
  Distribute overlap matrix:                 3.341     3.341   0.2% |
  Orbital Layouts:                           0.600     0.600   0.0% |
  Potential matrix:                          0.000     0.000   0.0% |
  Sum over cells:                            0.011     0.011   0.0% |
 LCAO to grid:                              58.695    58.695   2.7% ||
 Set positions (LCAO WFS):                   0.999     0.926   0.0% |
  Basic WFS set positions:                   0.001     0.001   0.0% |
  Basis functions set positions:             0.000     0.000   0.0% |
  P tci:                                     0.001     0.001   0.0% |
  ST tci:                                    0.056     0.056   0.0% |
  mktci:                                     0.015     0.015   0.0% |
PWDescriptor:                                0.094     0.094   0.0% |
Redistribute:                                0.003     0.003   0.0% |
SCF-cycle:                                2066.034     1.134   0.1% |
 Davidson:                                1675.583   307.349  14.1% |-----|
  Apply H:                                 175.666   170.299   7.8% |--|
   HMM T:                                    5.367     5.367   0.2% |
  Subspace diag:                           285.475     0.031   0.0% |
   calc_h_matrix:                          207.913    33.696   1.5% ||
    Apply H:                               174.218   168.849   7.8% |--|
     HMM T:                                  5.369     5.369   0.2% |
   diagonalize:                             14.801    14.801   0.7% |
   rotate_psi:                              62.730    62.730   2.9% ||
  calc. matrices:                          570.619   222.116  10.2% |---|
   Apply H:                                348.504   337.863  15.5% |-----|
    HMM T:                                  10.641    10.641   0.5% |
  diagonalize:                             218.327   218.327  10.0% |---|
  rotate_psi:                              118.147   118.147   5.4% |-|
 Density:                                  123.498     0.002   0.0% |
  Atomic density matrices:                   0.567     0.567   0.0% |
  Mix:                                      27.756    27.756   1.3% ||
  Multipole moments:                         0.032     0.032   0.0% |
  Pseudo density:                           95.142    95.141   4.4% |-|
   Symmetrize density:                       0.001     0.001   0.0% |
 Hamiltonian:                              260.449     0.741   0.0% |
  Atomic:                                    0.019     0.019   0.0% |
   XC Correction:                            0.000     0.000   0.0% |
  Calculate atomic Hamiltonians:            23.024    23.024   1.1% |
  Communicate:                              11.828    11.828   0.5% |
  Poisson:                                   0.231     0.231   0.0% |
  XC 3D grid:                              224.605    49.088   2.3% ||
   VdW-DF integral:                        175.517     8.016   0.4% |
    Convolution:                            17.378    17.378   0.8% |
    FFT:                                     7.495     7.495   0.3% |
    gather:                                 68.513    68.513   3.2% ||
    hmm1:                                    5.159     5.159   0.2% |
    hmm2:                                   11.832    11.832   0.5% |
    iFFT:                                    7.300     7.300   0.3% |
    potential:                              49.824     1.589   0.1% |
     collect:                                7.625     7.625   0.4% |
     p1:                                    12.280    12.280   0.6% |
     p2:                                    19.198    19.198   0.9% |
     sum:                                    9.131     9.131   0.4% |
    splines:                                 0.000     0.000   0.0% |
 Orthonormalize:                             5.369     0.002   0.0% |
  calc_s_matrix:                             0.736     0.736   0.0% |
  inverse-cholesky:                          0.283     0.283   0.0% |
  projections:                               2.946     2.946   0.1% |
  rotate_psi_s:                              1.401     1.401   0.1% |
Set symmetry:                                0.000     0.000   0.0% |
Other:                                       5.987     5.987   0.3% |
-------------------------------------------------------------------
Total:                                              2174.438 100.0%

Memory usage: 1.78 GiB
Date: Tue May  6 18:27:05 2025
