
  ___ ___ ___ _ _ _  
 |   |   |_  | | | | 
 | | | | | . | | | | 
 |__ |  _|___|_____|  25.1.1b1
 |___|_|             

User:   dmapa@c152.nifl.fysik.dtu.dk
Date:   Sat Apr 26 05:43:02 2025
Arch:   x86_64
Pid:    558878
CWD:    /home/cat/dmapa/gpaw/dissads/tree/surfaces/BEEF-Re/min_surf/relax
Python: 3.11.3
gpaw:   /home/cat/dmapa/bin/venv-asrlib/gpaw/gpaw (55eb60cdf0)
_gpaw:  /home/cat/dmapa/bin/venv-asrlib/gpaw/build/lib.linux-x86_64-skylake_el8-cpython-311/
        _gpaw.cpython-311-x86_64-linux-gnu.so (55eb60cdf0)
ase:    /home/cat/dmapa/bin/venv-asrlib/ase/ase (version 3.26.0b1-f4168b42a5)
numpy:  /home/modules/software/SciPy-bundle/2023.07-gfbf-2023a/lib/python3.11/site-packages/numpy (version 1.25.1)
scipy:  /home/modules/software/SciPy-bundle/2023.07-gfbf-2023a/lib/python3.11/site-packages/scipy (version 1.11.1)
libxc:  6.2.2
units:  Angstrom and eV
cores: 40
OpenMP: False
OMP_NUM_THREADS: 1

Input parameters:
  kpts: {size: [4, 3, 1]}
  mixer: {backend: pulay,
          beta: 0.02,
          method: separate,
          nmaxold: 5,
          weight: 50.0}
  mode: {ecut: 500,
         name: pw}
  spinpol: False
  symmetry: off
  xc: BEEF-vdW

System changes: positions, numbers, cell, pbc, initial_charges, initial_magmoms 

Initialize ...

species:
  Re:
    name: Rhenium
    id: e7ff48666be5877df55313211be7dccb
    Z: 75.0
    valence: 13
    core: 62
    charge: 0.0
    file: /home/modules/software/GPAW-setups/24.11.0/Re.PBE.gz
    compensation charges: {type: gauss,
                           rc: 0.42,
                           lmax: 2}
    cutoffs: {filter: 2.40,
              core: 2.76}
    projectors:
      #              energy  rcut
      - 6s(2.00)    -5.924   1.376
      - 5p(6.00)   -47.045   1.376
      - 6p(0.00)    -1.325   1.376
      - 5d(5.00)    -5.383   1.307
      -  s          21.287   1.376
      -  d          21.828   1.307
  
    # Using partial waves for Re as LCAO basis

Reference energy: -16332751.998567  # eV

Spin-paired calculation

Convergence criteria:
 Maximum [total energy] change in last 3 cyles: 0.0005 eV / valence electron
 Maximum integral of absolute [dens]ity change: 0.0001 electrons / valence electron
 Maximum integral of absolute [eigenst]ate change: 4e-08 eV^2 / valence electron
 Maximum number of scf [iter]ations: 333
 (Square brackets indicate name in SCF output, whereas a 'c' in
 the SCF output indicates the quantity has converged.)

Symmetries present (total): 1

  ( 1  0  0)
  ( 0  1  0)
  ( 0  0  1)

12 k-points: 4 x 3 x 1 Monkhorst-Pack grid
12 k-points in the irreducible part of the Brillouin zone
       k-points in crystal coordinates                weights
   0:    -0.37500000   -0.33333333    0.00000000          1/12
   1:    -0.37500000    0.00000000    0.00000000          1/12
   2:    -0.37500000    0.33333333    0.00000000          1/12
   3:    -0.12500000   -0.33333333    0.00000000          1/12
   4:    -0.12500000    0.00000000    0.00000000          1/12
   5:    -0.12500000    0.33333333    0.00000000          1/12
   6:     0.12500000   -0.33333333    0.00000000          1/12
   7:     0.12500000    0.00000000    0.00000000          1/12
   8:     0.12500000    0.33333333    0.00000000          1/12
   9:     0.37500000   -0.33333333    0.00000000          1/12
          ...
  11:     0.37500000    0.33333333    0.00000000          1/12

Wave functions: Plane wave expansion
  Cutoff energy: 500.000 eV
  Number of coefficients (min, max): 61489, 61525
  Pulay-stress correction: 0.000000 eV/Ang^3 (de/decut=0.000000)
  Using FFTW library
  ScaLapack parameters: grid=1x1, blocksize=None
  Wavefunction extrapolation:
    Improved wavefunction reuse through dual PAW basis 

Occupation numbers: Fermi-Dirac:
  width: 0.1000  # eV
 

Eigensolver
   Davidson(niter=2) 

Densities:
  Coarse grid: 45*50*160 grid
  Fine grid: 90*100*320 grid
  Total Charge: 0.000000 

Density mixing:
  Method: separate
  Backend: pulay
  Linear mixing parameter: 0.02
  old densities: 5
  Damping of long wavelength oscillations: 50 

Hamiltonian:
  XC and Coulomb potentials evaluated on a 90*100*320 grid
  Using the BEEF-vdW Exchange-Correlation functional
  External potential:
    NoExternalPotential
 

XC parameters: BEEF-vdW with 2 nearest neighbor stencil

Memory estimate:
  Process memory now: 1086.38 MiB
  Calculator: 158.70 MiB
    Density: 16.39 MiB
      Arrays: 7.14 MiB
      Localized functions: 6.50 MiB
      Mixer: 2.75 MiB
    Hamiltonian: 4.80 MiB
      Arrays: 4.67 MiB
      XC: 0.00 MiB
      Poisson: 0.00 MiB
      vbar: 0.13 MiB
    Wavefunctions: 137.51 MiB
      Arrays psit_nG: 80.27 MiB
      Eigensolver: 39.63 MiB
      Projections: 0.85 MiB
      Projectors: 2.11 MiB
      PW-descriptor: 14.65 MiB

Total number of cores used: 40
Parallelization over k-points: 4
Domain decomposition: 1 x 2 x 5

Number of atoms: 36
Number of atomic orbitals: 432
Number of bands in calculation: 285
Number of valence electrons: 468
Bands to converge: occupied

... initialized

Initializing position-dependent things.

Density initialized from atomic densities
Creating initial wave functions:
  285 bands from LCAO basis set

       .--------------------.  
      /|                    |  
     / |                    |  
    /  |                    |  
   /   |                    |  
  /    |                    |  
 *     |                    |  
 |     |                    |  
 |     |                    |  
 |     |                    |  
 |     |                    |  
 |     |                    |  
 |     |                    |  
 |     |                    |  
 |     |                    |  
 |     |                    |  
 |     |                    |  
 |     | Re     Re     Re   |  
 |     |                    |  
 |  Re |  RRe    RRe    Re  |  
 |    Re     Re     Re      |  
 |   Re|    Re     Re       |  
 Re    RRe    RRe    Re     |  
 |     | Re     Re     Re   |  
 |ReRe | ReRe   ReRe        |  
 |     |                    |  
 |    Re     Re     Re      |  
 Re    |Re     Re           |  
 |     |                    |  
 |     |                    |  
 |     |                    |  
 |     |                    |  
 |     |                    |  
 |     |                    |  
 |     |                    |  
 |     |                    |  
 |     |                    |  
 |     .--------------------.  
 |    /                    /   
 |   /                    /    
 |  /                    /     
 | /                    /      
 |/                    /       
 *--------------------*        

Positions:
   0 Re     0.000000    0.000000   12.754746    ( 0.0000,  0.0000,  0.0000)
   1 Re     2.787459    0.000000   12.754746    ( 0.0000,  0.0000,  0.0000)
   2 Re     5.574919    0.000000   12.754746    ( 0.0000,  0.0000,  0.0000)
   3 Re     1.393730    2.414011   12.754746    ( 0.0000,  0.0000,  0.0000)
   4 Re     4.181189    2.414011   12.754746    ( 0.0000,  0.0000,  0.0000)
   5 Re     6.968648    2.414011   12.754746    ( 0.0000,  0.0000,  0.0000)
   6 Re     0.000000    4.828021   12.754746    ( 0.0000,  0.0000,  0.0000)
   7 Re     2.787459    4.828021   12.754746    ( 0.0000,  0.0000,  0.0000)
   8 Re     5.574919    4.828021   12.754746    ( 0.0000,  0.0000,  0.0000)
   9 Re     1.393730    7.242032   12.754746    ( 0.0000,  0.0000,  0.0000)
  10 Re     4.181189    7.242032   12.754746    ( 0.0000,  0.0000,  0.0000)
  11 Re     6.968648    7.242032   12.754746    ( 0.0000,  0.0000,  0.0000)
  12 Re     0.000000    1.609340   15.000000    ( 0.0000,  0.0000,  0.0000)
  13 Re     2.787459    1.609340   15.000000    ( 0.0000,  0.0000,  0.0000)
  14 Re     5.574919    1.609340   15.000000    ( 0.0000,  0.0000,  0.0000)
  15 Re     1.393730    4.023351   15.000000    ( 0.0000,  0.0000,  0.0000)
  16 Re     4.181189    4.023351   15.000000    ( 0.0000,  0.0000,  0.0000)
  17 Re     6.968648    4.023351   15.000000    ( 0.0000,  0.0000,  0.0000)
  18 Re     0.000000    6.437362   15.000000    ( 0.0000,  0.0000,  0.0000)
  19 Re     2.787459    6.437362   15.000000    ( 0.0000,  0.0000,  0.0000)
  20 Re     5.574919    6.437362   15.000000    ( 0.0000,  0.0000,  0.0000)
  21 Re     1.393730    8.851372   15.000000    ( 0.0000,  0.0000,  0.0000)
  22 Re     4.181189    8.851372   15.000000    ( 0.0000,  0.0000,  0.0000)
  23 Re     6.968648    8.851372   15.000000    ( 0.0000,  0.0000,  0.0000)
  24 Re     0.000000    0.000049   17.235996    ( 0.0000,  0.0000,  0.0000)
  25 Re     2.787459    0.000049   17.235996    ( 0.0000,  0.0000,  0.0000)
  26 Re     5.574919    0.000049   17.235996    ( 0.0000,  0.0000,  0.0000)
  27 Re     1.393730    2.414061   17.235997    ( 0.0000,  0.0000,  0.0000)
  28 Re     4.181189    2.414061   17.235997    ( 0.0000,  0.0000,  0.0000)
  29 Re     6.968648    2.414061   17.235997    ( 0.0000,  0.0000,  0.0000)
  30 Re     0.000000    4.828070   17.235996    ( 0.0000,  0.0000,  0.0000)
  31 Re     2.787459    4.828070   17.235996    ( 0.0000,  0.0000,  0.0000)
  32 Re     5.574919    4.828070   17.235996    ( 0.0000,  0.0000,  0.0000)
  33 Re     1.393730    7.242082   17.235997    ( 0.0000,  0.0000,  0.0000)
  34 Re     4.181189    7.242082   17.235997    ( 0.0000,  0.0000,  0.0000)
  35 Re     6.968648    7.242082   17.235997    ( 0.0000,  0.0000,  0.0000)

Unit cell:
           periodic     x           y           z      points  spacing
  1. axis:    yes    8.362378    0.000000    0.000000    45     0.1858
  2. axis:    yes    0.000000    9.656042    0.000000    50     0.1931
  3. axis:    no     0.000000    0.000000   30.000000   160     0.1875

  Lengths:   8.362378   9.656042  30.000000
  Angles:   90.000000  90.000000  90.000000

Effective grid spacing dv^(1/3) = 0.1888

     iter     time        total  log10-change:
                         energy   eigst   dens
iter:   1 05:44:15 -11311.916342
iter:   2 05:44:35 -11310.262103   -0.97  -1.24
iter:   3 05:44:54 -11306.775442   -1.23  -1.25
iter:   4 05:45:14 -11304.837814   -1.78  -1.30
iter:   5 05:45:33 -11301.537348   -1.35  -1.36
iter:   6 05:45:53 -11300.653543   -1.34  -1.53
iter:   7 05:46:13 -11300.794777   -1.67  -1.64
iter:   8 05:46:32 -11300.970330   -1.93  -1.97
iter:   9 05:46:52 -11300.966359c  -2.69  -2.16
iter:  10 05:47:12 -11301.459253   -2.26  -2.15
iter:  11 05:47:31 -11301.202900   -3.02  -2.02
iter:  12 05:47:51 -11300.795228   -1.86  -2.10
iter:  13 05:48:10 -11300.805225   -2.89  -2.89
iter:  14 05:48:30 -11300.824277c  -3.04  -2.96
iter:  15 05:48:50 -11300.833492c  -3.39  -2.86
iter:  16 05:49:09 -11300.836982c  -3.63  -2.65
iter:  17 05:49:29 -11300.817758c  -3.66  -2.74
iter:  18 05:49:49 -11300.829330c  -4.10  -2.86
iter:  19 05:50:08 -11300.835127c  -3.92  -2.79
iter:  20 05:50:28 -11300.818559c  -3.63  -2.75
iter:  21 05:50:47 -11300.820132c  -4.34  -2.89
iter:  22 05:51:07 -11300.831328c  -3.62  -2.90
iter:  23 05:51:27 -11300.822849c  -4.22  -2.86
iter:  24 05:51:46 -11300.820717c  -3.18  -2.93
iter:  25 05:52:06 -11300.823460c  -3.29  -2.88
iter:  26 05:52:25 -11300.815757c  -4.36  -3.08
iter:  27 05:52:45 -11300.815114c  -4.42  -3.31
iter:  28 05:53:05 -11300.818392c  -4.14  -3.33
iter:  29 05:53:24 -11300.815790c  -4.79  -3.27
iter:  30 05:53:44 -11300.815558c  -5.14  -3.44
iter:  31 05:54:04 -11300.816830c  -4.64  -3.46
iter:  32 05:54:23 -11300.815638c  -5.17  -3.47
iter:  33 05:54:43 -11300.815344c  -5.38  -3.55
iter:  34 05:55:02 -11300.814585c  -5.17  -3.60
iter:  35 05:55:22 -11300.814728c  -5.76  -3.68
iter:  36 05:55:42 -11300.814891c  -5.70  -3.70
iter:  37 05:56:01 -11300.814201c  -5.64  -3.82
iter:  38 05:56:21 -11300.814145c  -6.08  -4.16c
iter:  39 05:56:41 -11300.814135c  -6.37  -4.27c
iter:  40 05:57:00 -11300.814035c  -6.48  -4.36c
iter:  41 05:57:20 -11300.813988c  -6.74  -4.42c
iter:  42 05:57:39 -11300.814112c  -6.69  -4.34c
iter:  43 05:57:59 -11300.814117c  -7.00  -4.47c
iter:  44 05:58:19 -11300.814128c  -7.25  -4.47c
iter:  45 05:58:38 -11300.814121c  -7.39  -4.48c
iter:  46 05:58:58 -11300.814133c  -7.56c -4.47c

Converged after 46 iterations.

Dipole moment: (-0.000000, 24.565664, 0.004055) |e|*Ang

Energy contributions relative to reference atoms: (reference = -16332751.998567)

Kinetic:       +685.444873
Potential:     -736.295103
External:        +0.000000
XC:            -11251.556130
Entropy (-ST):   -1.319068
Local:           +2.251763
SIC:             +0.000000
--------------------------
Free energy:   -11301.473667
Extrapolated:  -11300.814133

Showing only first 2 kpts
 Kpt  Band  Eigenvalues  Occupancy
  0   232     -1.14239    1.70680
 
Forces in eV/Ang:
  0 Re    0.00000    0.00341    0.64803
  1 Re    0.00000    0.00341    0.64803
  2 Re   -0.00000    0.00341    0.64803
  3 Re   -0.00000    0.00350    0.64795
  4 Re    0.00000    0.00350    0.64795
  5 Re    0.00000    0.00350    0.64795
  6 Re    0.00000    0.00341    0.64803
  7 Re    0.00000    0.00341    0.64803
  8 Re   -0.00000    0.00341    0.64803
  9 Re   -0.00000    0.00350    0.64795
 10 Re   -0.00000    0.00350    0.64795
 11 Re    0.00000    0.00350    0.64795
 12 Re    0.00000   -0.00653    0.00000
 13 Re    0.00000   -0.00653    0.00000
 14 Re   -0.00000   -0.00653    0.00000
 15 Re   -0.00000   -0.00660    0.00000
 16 Re    0.00000   -0.00660    0.00000
 17 Re    0.00000   -0.00660    0.00000
 18 Re    0.00000   -0.00653    0.00000
 19 Re    0.00000   -0.00653    0.00000
 20 Re   -0.00000   -0.00653    0.00000
 21 Re   -0.00000   -0.00660    0.00000
 22 Re    0.00000   -0.00660    0.00000
 23 Re    0.00000   -0.00660    0.00000
 24 Re    0.00000    0.00341   -0.64803
 25 Re    0.00000    0.00341   -0.64803
 26 Re   -0.00000    0.00341   -0.64803
 27 Re   -0.00000    0.00350   -0.64795
 28 Re    0.00000    0.00350   -0.64795
 29 Re    0.00000    0.00350   -0.64795
 30 Re    0.00000    0.00341   -0.64803
 31 Re    0.00000    0.00341   -0.64803
 32 Re   -0.00000    0.00341   -0.64803
 33 Re   -0.00000    0.00350   -0.64795
 34 Re   -0.00000    0.00350   -0.64795
 35 Re    0.00000    0.00350   -0.64795

System changes: positions 

Initializing position-dependent things.

Timing:                              incl.     excl.
-----------------------------------------------------------
Forces:                              2.661     2.661   0.1% |
Hamiltonian:                         6.128     0.008   0.0% |
 Atomic:                             0.000     0.000   0.0% |
  XC Correction:                     0.000     0.000   0.0% |
 Calculate atomic Hamiltonians:      0.249     0.249   0.0% |
 Communicate:                        0.156     0.156   0.0% |
 Initialize Hamiltonian:             0.001     0.001   0.0% |
 Poisson:                            0.002     0.002   0.0% |
 XC 3D grid:                         5.713     0.539   0.0% |
  VdW-DF integral:                   5.174     0.083   0.0% |
   Convolution:                      0.190     0.190   0.0% |
   FFT:                              0.077     0.077   0.0% |
   gather:                           0.936     0.936   0.0% |
   hmm1:                             0.056     0.056   0.0% |
   hmm2:                             0.128     0.128   0.0% |
   iFFT:                             0.078     0.078   0.0% |
   potential:                        0.532     0.018   0.0% |
    collect:                         0.076     0.076   0.0% |
    p1:                              0.137     0.137   0.0% |
    p2:                              0.209     0.209   0.0% |
    sum:                             0.092     0.092   0.0% |
   splines:                          3.096     3.096   0.1% |
LCAO initialization:                17.620     0.031   0.0% |
 LCAO eigensolver:                   2.698     0.000   0.0% |
  Calculate projections:             0.000     0.000   0.0% |
  DenseAtomicCorrection:             0.000     0.000   0.0% |
  Distribute overlap matrix:         2.544     2.544   0.1% |
  Orbital Layouts:                   0.150     0.150   0.0% |
  Potential matrix:                  0.000     0.000   0.0% |
  Sum over cells:                    0.003     0.003   0.0% |
 LCAO to grid:                      14.381    14.381   0.5% |
 Set positions (LCAO WFS):           0.509     0.455   0.0% |
  Basic WFS set positions:           0.003     0.003   0.0% |
  Basis functions set positions:     0.000     0.000   0.0% |
  P tci:                             0.000     0.000   0.0% |
  ST tci:                            0.034     0.034   0.0% |
  mktci:                             0.016     0.016   0.0% |
PWDescriptor:                        0.376     0.376   0.0% |
Redistribute:                        0.000     0.000   0.0% |
SCF-cycle:                         406.206     4.898   0.2% |
 Davidson:                         239.279    46.015   1.5% ||
  Apply H:                          25.667    24.845   0.8% |
   HMM T:                            0.822     0.822   0.0% |
  Subspace diag:                    40.906     0.004   0.0% |
   calc_h_matrix:                   29.963     4.507   0.1% |
    Apply H:                        25.456    24.623   0.8% |
     HMM T:                          0.833     0.833   0.0% |
   diagonalize:                      2.155     2.155   0.1% |
   rotate_psi:                       8.785     8.785   0.3% |
  calc. matrices:                   80.354    29.355   1.0% |
   Apply H:                         50.999    49.383   1.6% ||
    HMM T:                           1.616     1.616   0.1% |
  diagonalize:                      29.754    29.754   1.0% |
  rotate_psi:                       16.582    16.582   0.6% |
 Density:                           31.735     0.001   0.0% |
  Atomic density matrices:           0.196     0.196   0.0% |
  Mix:                              13.773    13.773   0.5% |
  Multipole moments:                 0.015     0.015   0.0% |
  Pseudo density:                   17.749    14.020   0.5% |
   Symmetrize density:               3.729     3.729   0.1% |
 Hamiltonian:                      129.933     0.367   0.0% |
  Atomic:                            0.010     0.009   0.0% |
   XC Correction:                    0.000     0.000   0.0% |
  Calculate atomic Hamiltonians:    11.484    11.484   0.4% |
  Communicate:                       6.366     6.366   0.2% |
  Poisson:                           0.106     0.106   0.0% |
  XC 3D grid:                      111.599    25.041   0.8% |
   VdW-DF integral:                 86.558     3.785   0.1% |
    Convolution:                     8.727     8.727   0.3% |
    FFT:                             3.655     3.655   0.1% |
    gather:                         33.389    33.389   1.1% |
    hmm1:                            2.673     2.673   0.1% |
    hmm2:                            6.010     6.010   0.2% |
    iFFT:                            3.628     3.628   0.1% |
    potential:                      24.690     0.781   0.0% |
     collect:                        3.773     3.773   0.1% |
     p1:                             6.335     6.335   0.2% |
     p2:                             9.673     9.673   0.3% |
     sum:                            4.128     4.128   0.1% |
    splines:                         0.000     0.000   0.0% |
 Orthonormalize:                     0.362     0.000   0.0% |
  calc_s_matrix:                     0.047     0.047   0.0% |
  inverse-cholesky:                  0.020     0.020   0.0% |
  projections:                       0.197     0.197   0.0% |
  rotate_psi_s:                      0.097     0.097   0.0% |
Set symmetry:                        0.002     0.002   0.0% |
Other:                            2574.296  2574.296  85.6% |---------------------------------|
-----------------------------------------------------------
Total:                                      3007.289 100.0%

Memory usage: 1.44 GiB
Date: Sat Apr 26 06:25:51 2025
:59 -11300.868858c  -5.44  -3.88
iter:  16 06:04:18 -11300.868859c  -6.59  -4.00
iter:  17 06:04:38 -11300.868896c  -6.79  -4.02c
iter:  18 06:04:58 -11300.869167c  -5.49  -4.07c
iter:  19 06:05:17 -11300.868979c  -5.85  -3.89
iter:  20 06:05:37 -11300.868997c  -7.23  -4.24c
iter:  21 06:05:57 -11300.868994c  -5.79  -4.20c
iter:  22 06:06:16 -11300.868943c  -7.29  -4.16c
iter:  23 06:06:36 -11300.869013c  -7.07  -4.25c
iter:  24 06:06:55 -11300.868973c  -6.44  -4.20c
iter:  25 06:07:15 -11300.869032c  -6.09  -4.05c
iter:  26 06:07:35 -11300.869040c  -6.55  -4.35c
iter:  27 06:07:54 -11300.869018c  -7.68c -4.43c

Converged after 27 iterations.

Dipole moment: (0.000000, 24.546492, 0.006678) |e|*Ang

Energy contributions relative to reference atoms: (reference = -16332751.998567)

Kinetic:       +692.657835
Potential:     -742.550443
External:        +0.000000
XC:            -11252.636582
Entropy (-ST):   -1.322975
Local:           +2.321659
SIC:             +0.000000
--------------------------
Free energy:   -11301.530506
Extrapolated:  -11300.869018

Showing only first 2 kpts
 Kpt  Band  Eigenvalues  Occupancy
  0   232     -1.13636    1.70186
  0   233     -1.13309    1.69347
  0   234     -1.11929    1.65591
  0   235     -0.98786    1.12774

  1   232     -0.93096    0.84518
  1   233     -0.86195    0.53704
  1   234     -0.86191    0.53684
  1   235     -0.76935    0.25389


Fermi level: -0.96217

No gap
No difference between direct/indirect transitions

Forces in eV/Ang:
  0 Re    0.00000    0.00424    0.60768
  1 Re   -0.00000    0.00424    0.60768
  2 Re    0.00000    0.00424    0.60768
  3 Re   -0.00000    0.00373    0.60728
  4 Re    0.00000    0.00373    0.60728
  5 Re    0.00000    0.00373    0.60728
  6 Re    0.00000    0.00424    0.60768
  7 Re   -0.00000    0.00424    0.60768
  8 Re    0.00000    0.00424    0.60768
  9 Re   -0.00000    0.00373    0.60728
 10 Re    0.00000    0.00373    0.60728
 11 Re    0.00000    0.00373    0.60728
 12 Re   -0.00000   -0.00740   -0.08826
 13 Re    0.00000   -0.00740   -0.08826
 14 Re    0.00000   -0.00740   -0.08826
 15 Re    0.00000   -0.00776   -0.08831
 16 Re   -0.00000   -0.00776   -0.08831
 17 Re   -0.00000   -0.00776   -0.08831
 18 Re   -0.00000   -0.00740   -0.08826
 19 Re    0.00000   -0.00740   -0.08826
 20 Re    0.00000   -0.00740   -0.08826
 21 Re    0.00000   -0.00776   -0.08831
 22 Re   -0.00000   -0.00776   -0.08831
 23 Re   -0.00000   -0.00776   -0.08831
 24 Re    0.00000    0.00422   -0.52958
 25 Re    0.00000    0.00422   -0.52958
 26 Re   -0.00000    0.00422   -0.52958
 27 Re    0.00000    0.00370   -0.52917
 28 Re    0.00000    0.00370   -0.52917
 29 Re   -0.00000    0.00370   -0.52917
 30 Re    0.00000    0.00422   -0.52958
 31 Re    0.00000    0.00422   -0.52958
 32 Re   -0.00000    0.00422   -0.52958
 33 Re    0.00000    0.00370   -0.52917
 34 Re    0.00000    0.00370   -0.52917
 35 Re   -0.00000    0.00370   -0.52917

System changes: positions 

Initializing position-dependent things.

Density initialized from wave functions
       .--------------------.  
      /|                    |  
     / |                    |  
    /  |                    |  
   /   |                    |  
  /    |                    |  
 *     |                    |  
 |     |                    |  
 |     |                    |  
 |     |                    |  
 |     |                    |  
 |     |                    |  
 |     |                    |  
 |     |                    |  
 |     |                    |  
 |     |                    |  
 |     |                    |  
 |     | Re     Re     Re   |  
 |     |                    |  
 |  Re |  RRe    RRe    Re  |  
 |    Re     Re     Re      |  
 |   Re|    Re     Re       |  
 Re    RRe    RRe    Re     |  
 |     | Re     Re     Re   |  
 |ReRe | ReRe   ReRe        |  
 |     |                    |  
 |    Re     Re     Re      |  
 Re    |Re     Re           |  
 |     |                    |  
 |     |                    |  
 |     |                    |  
 |     |                    |  
 |     |                    |  
 |     |                    |  
 |     |                    |  
 |     |                    |  
 |     |                    |  
 |     .--------------------.  
 |    /                    /   
 |   /                    /    
 |  /                    /     
 | /                    /      
 |/                    /       
 *--------------------*        

Positions:
   0 Re     0.000000    0.000000   12.754746    ( 0.0000,  0.0000,  0.0000)
   1 Re     2.787459    0.000000   12.754746    ( 0.0000,  0.0000,  0.0000)
   2 Re     5.574919    0.000000   12.754746    ( 0.0000,  0.0000,  0.0000)
   3 Re     1.393730    2.414011   12.754746    ( 0.0000,  0.0000,  0.0000)
   4 Re     4.181189    2.414011   12.754746    ( 0.0000,  0.0000,  0.0000)
   5 Re     6.968648    2.414011   12.754746    ( 0.0000,  0.0000,  0.0000)
   6 Re     0.000000    4.828021   12.754746    ( 0.0000,  0.0000,  0.0000)
   7 Re     2.787459    4.828021   12.754746    ( 0.0000,  0.0000,  0.0000)
   8 Re     5.574919    4.828021   12.754746    ( 0.0000,  0.0000,  0.0000)
   9 Re     1.393730    7.242032   12.754746    ( 0.0000,  0.0000,  0.0000)
  10 Re     4.181189    7.242032   12.754746    ( 0.0000,  0.0000,  0.0000)
  11 Re     6.968648    7.242032   12.754746    ( 0.0000,  0.0000,  0.0000)
  12 Re     0.000000    1.609340   15.000000    ( 0.0000,  0.0000,  0.0000)
  13 Re     2.787459    1.609340   15.000000    ( 0.0000,  0.0000,  0.0000)
  14 Re     5.574919    1.609340   15.000000    ( 0.0000,  0.0000,  0.0000)
  15 Re     1.393730    4.023351   15.000000    ( 0.0000,  0.0000,  0.0000)
  16 Re     4.181189    4.023351   15.000000    ( 0.0000,  0.0000,  0.0000)
  17 Re     6.968648    4.023351   15.000000    ( 0.0000,  0.0000,  0.0000)
  18 Re     0.000000    6.437362   15.000000    ( 0.0000,  0.0000,  0.0000)
  19 Re     2.787459    6.437362   15.000000    ( 0.0000,  0.0000,  0.0000)
  20 Re     5.574919    6.437362   15.000000    ( 0.0000,  0.0000,  0.0000)
  21 Re     1.393730    8.851372   15.000000    ( 0.0000,  0.0000,  0.0000)
  22 Re     4.181189    8.851372   15.000000    ( 0.0000,  0.0000,  0.0000)
  23 Re     6.968648    8.851372   15.000000    ( 0.0000,  0.0000,  0.0000)
  24 Re     0.000000    0.000661   17.157302    ( 0.0000,  0.0000,  0.0000)
  25 Re     2.787459    0.000661   17.157302    ( 0.0000,  0.0000,  0.0000)
  26 Re     5.574919    0.000661   17.157302    ( 0.0000,  0.0000,  0.0000)
  27 Re     1.393730    2.414604   17.157358    ( 0.0000,  0.0000,  0.0000)
  28 Re     4.181189    2.414604   17.157358    ( 0.0000,  0.0000,  0.0000)
  29 Re     6.968648    2.414604   17.157358    ( 0.0000,  0.0000,  0.0000)
  30 Re     0.000000    4.828682   17.157302    ( 0.0000,  0.0000,  0.0000)
  31 Re     2.787459    4.828682   17.157302    ( 0.0000,  0.0000,  0.0000)
  32 Re     5.574919    4.828682   17.157302    ( 0.0000,  0.0000,  0.0000)
  33 Re     1.393730    7.242625   17.157358    ( 0.0000,  0.0000,  0.0000)
  34 Re     4.181189    7.242625   17.157358    ( 0.0000,  0.0000,  0.0000)
  35 Re     6.968648    7.242625   17.157358    ( 0.0000,  0.0000,  0.0000)

Unit cell:
           periodic     x           y           z      points  spacing
  1. axis:    yes    8.362378    0.000000    0.000000    45     0.1858
  2. axis:    yes    0.000000    9.656042    0.000000    50     0.1931
  3. axis:    no     0.000000    0.000000   30.000000   160     0.1875

  Lengths:   8.362378   9.656042  30.000000
  Angles:   90.000000  90.000000  90.000000

Effective grid spacing dv^(1/3) = 0.1888

     iter     time        total  log10-change:
                         energy   eigst   dens
iter:   1 06:08:20 -11307.101403   -0.61
iter:   2 06:08:40 -11304.388861   -2.02  -1.53
iter:   3 06:09:00 -11301.542556   -1.49  -1.66
iter:   4 06:09:19 -11301.391106   -1.68  -2.05
iter:   5 06:09:39 -11301.264537   -2.57  -2.16
iter:   6 06:09:58 -11301.051117   -2.25  -2.25
iter:   7 06:10:18 -11301.056725c  -3.00  -2.69
iter:   8 06:10:38 -11301.062610c  -3.34  -2.74
iter:   9 06:10:57 -11301.063085c  -3.97  -2.74
iter:  10 06:11:17 -11301.070667c  -3.80  -2.73
iter:  11 06:11:36 -11301.095301c  -2.71  -2.72
iter:  12 06:11:56 -11301.060876c  -3.83  -2.65
iter:  13 06:12:16 -11301.055709c  -3.83  -2.87
iter:  14 06:12:35 -11301.069577c  -3.69  -2.95
iter:  15 06:12:55 -11301.056844c  -3.62  -2.80
iter:  16 06:13:15 -11301.055190c  -4.54  -3.00
iter:  17 06:13:35 -11301.056167c  -4.13  -3.18
iter:  18 06:13:54 -11301.056598c  -4.83  -3.40
iter:  19 06:14:14 -11301.057003c  -5.13  -3.45
iter:  20 06:14:34 -11301.055993c  -5.05  -3.38
iter:  21 06:14:53 -11301.055226c  -5.10  -3.60
iter:  22 06:15:13 -11301.055573c  -5.94  -3.70
iter:  23 06:15:32 -11301.054904c  -5.04  -3.66
iter:  24 06:15:52 -11301.054769c  -5.73  -3.66
iter:  25 06:16:12 -11301.054834c  -6.45  -3.75
iter:  26 06:16:31 -11301.054852c  -6.13  -3.75
iter:  27 06:16:51 -11301.054960c  -5.80  -3.81
iter:  28 06:17:10 -11301.054989c  -5.64  -3.83
iter:  29 06:17:30 -11301.054868c  -5.97  -4.18c
iter:  30 06:17:50 -11301.054900c  -6.67  -4.28c
iter:  31 06:18:09 -11301.055007c  -6.65  -4.34c
iter:  32 06:18:29 -11301.054991c  -6.86  -4.48c
iter:  33 06:18:48 -11301.055008c  -7.22  -4.50c
iter:  34 06:19:08 -11301.055013c  -7.49c -4.47c

Converged after 34 iterations.

Dipole moment: (0.000000, 24.369153, 0.030699) |e|*Ang

Energy contributions relative to reference atoms: (reference = -16332751.998567)

Kinetic:       +756.182829
Potential:     -796.742627
External:        +0.000000
XC:            -11262.108205
Entropy (-ST):   -1.344417
Local:           +2.285199
SIC:             +0.000000
--------------------------
Free energy:   -11301.727221
Extrapolated:  -11301.055013

Showing only first 2 kpts
 Kpt  Band  Eigenvalues  Occupancy
  0   232     -1.11578    1.72664
  0   233     -1.10555    1.70161
  0   234     -1.08849    1.65564
  0   235     -0.96477    1.16503

  1   232     -0.87148    0.70878
  1   233     -0.85373    0.62979
  1   234     -0.85369    0.62963
  1   235     -0.75267    0.28667


Fermi level: -0.93146

No gap
No difference between direct/indirect transitions

Forces in eV/Ang:
  0 Re    0.00000    0.00485    0.42313
  1 Re    0.00000    0.00485    0.42314
  2 Re   -0.00000    0.00485    0.42314
  3 Re   -0.00000    0.00446    0.42331
  4 Re    0.00000    0.00446    0.42331
  5 Re    0.00000    0.00446    0.42331
  6 Re   -0.00000    0.00485    0.42313
  7 Re    0.00000    0.00485    0.42314
  8 Re   -0.00000    0.00485    0.42314
  9 Re   -0.00000    0.00446    0.42331
 10 Re    0.00000    0.00446    0.42331
 11 Re    0.00000    0.00446    0.42331
 12 Re    0.00000   -0.00863   -0.51256
 13 Re    0.00000   -0.00863   -0.51256
 14 Re   -0.00000   -0.00863   -0.51256
 15 Re   -0.00000   -0.00863   -0.51257
 16 Re   -0.00000   -0.00863   -0.51257
 17 Re    0.00000   -0.00863   -0.51257
 18 Re   -0.00000   -0.00863   -0.51256
 19 Re    0.00000   -0.00863   -0.51256
 20 Re   -0.00000   -0.00863   -0.51256
 21 Re   -0.00000   -0.00863   -0.51257
 22 Re   -0.00000   -0.00863   -0.51257
 23 Re    0.00000   -0.00863   -0.51257
 24 Re    0.00000    0.00375    0.09418
 25 Re    0.00000    0.00374    0.09418
 26 Re   -0.00000    0.00374    0.09418
 27 Re   -0.00000    0.00481    0.09326
 28 Re    0.00000    0.00481    0.09326
 29 Re    0.00000    0.00481    0.09326
 30 Re    0.00000    0.00375    0.09418
 31 Re    0.00000    0.00374    0.09418
 32 Re   -0.00000    0.00374    0.09418
 33 Re   -0.00000    0.00481    0.09326
 34 Re   -0.00000    0.00481    0.09326
 35 Re    0.00000    0.00481    0.09326

System changes: positions 

Initializing position-dependent things.

Density initialized from wave functions
       .--------------------.  
      /|                    |  
     / |                    |  
    /  |                    |  
   /   |                    |  
  /    |                    |  
 *     |                    |  
 |     |                    |  
 |     |                    |  
 |     |                    |  
 |     |                    |  
 |     |                    |  
 |     |                    |  
 |     |                    |  
 |     |                    |  
 |     |                    |  
 |     |                    |  
 |     | Re     Re     Re   |  
 |     |                    |  
 |  Re |  RRe    RRe    Re  |  
 |    Re     Re     Re      |  
 |   Re|    Re     Re       |  
 Re    RRe    RRe    Re     |  
 |     | Re     Re     Re   |  
 |ReRe | ReRe   ReRe        |  
 |     |                    |  
 |    Re     Re     Re      |  
 Re    |Re     Re           |  
 |     |                    |  
 |     |                    |  
 |     |                    |  
 |     |                    |  
 |     |                    |  
 |     |                    |  
 |     |                    |  
 |     |                    |  
 |     |                    |  
 |     .--------------------.  
 |    /                    /   
 |   /                    /    
 |  /                    /     
 | /                    /      
 |/                    /       
 *--------------------*        

Positions:
   0 Re     0.000000    0.000000   12.754746    ( 0.0000,  0.0000,  0.0000)
   1 Re     2.787459    0.000000   12.754746    ( 0.0000,  0.0000,  0.0000)
   2 Re     5.574919    0.000000   12.754746    ( 0.0000,  0.0000,  0.0000)
   3 Re     1.393730    2.414011   12.754746    ( 0.0000,  0.0000,  0.0000)
   4 Re     4.181189    2.414011   12.754746    ( 0.0000,  0.0000,  0.0000)
   5 Re     6.968648    2.414011   12.754746    ( 0.0000,  0.0000,  0.0000)
   6 Re     0.000000    4.828021   12.754746    ( 0.0000,  0.0000,  0.0000)
   7 Re     2.787459    4.828021   12.754746    ( 0.0000,  0.0000,  0.0000)
   8 Re     5.574919    4.828021   12.754746    ( 0.0000,  0.0000,  0.0000)
   9 Re     1.393730    7.242032   12.754746    ( 0.0000,  0.0000,  0.0000)
  10 Re     4.181189    7.242032   12.754746    ( 0.0000,  0.0000,  0.0000)
  11 Re     6.968648    7.242032   12.754746    ( 0.0000,  0.0000,  0.0000)
  12 Re     0.000000    1.609340   15.000000    ( 0.0000,  0.0000,  0.0000)
  13 Re     2.787459    1.609340   15.000000    ( 0.0000,  0.0000,  0.0000)
  14 Re     5.574919    1.609340   15.000000    ( 0.0000,  0.0000,  0.0000)
  15 Re     1.393730    4.023351   15.000000    ( 0.0000,  0.0000,  0.0000)
  16 Re     4.181189    4.023351   15.000000    ( 0.0000,  0.0000,  0.0000)
  17 Re     6.968648    4.023351   15.000000    ( 0.0000,  0.0000,  0.0000)
  18 Re     0.000000    6.437362   15.000000    ( 0.0000,  0.0000,  0.0000)
  19 Re     2.787459    6.437362   15.000000    ( 0.0000,  0.0000,  0.0000)
  20 Re     5.574919    6.437362   15.000000    ( 0.0000,  0.0000,  0.0000)
  21 Re     1.393730    8.851372   15.000000    ( 0.0000,  0.0000,  0.0000)
  22 Re     4.181189    8.851372   15.000000    ( 0.0000,  0.0000,  0.0000)
  23 Re     6.968648    8.851372   15.000000    ( 0.0000,  0.0000,  0.0000)
  24 Re     0.000000    0.000631   17.167865    ( 0.0000,  0.0000,  0.0000)
  25 Re     2.787459    0.000631   17.167865    ( 0.0000,  0.0000,  0.0000)
  26 Re     5.574919    0.000631   17.167865    ( 0.0000,  0.0000,  0.0000)
  27 Re     1.393730    2.414597   17.167903    ( 0.0000,  0.0000,  0.0000)
  28 Re     4.181189    2.414597   17.167903    ( 0.0000,  0.0000,  0.0000)
  29 Re     6.968648    2.414597   17.167903    ( 0.0000,  0.0000,  0.0000)
  30 Re     0.000000    4.828652   17.167865    ( 0.0000,  0.0000,  0.0000)
  31 Re     2.787459    4.828652   17.167865    ( 0.0000,  0.0000,  0.0000)
  32 Re     5.574919    4.828652   17.167865    ( 0.0000,  0.0000,  0.0000)
  33 Re     1.393730    7.242618   17.167903    ( 0.0000,  0.0000,  0.0000)
  34 Re     4.181189    7.242618   17.167903    ( 0.0000,  0.0000,  0.0000)
  35 Re     6.968648    7.242618   17.167903    ( 0.0000,  0.0000,  0.0000)

Unit cell:
           periodic     x           y           z      points  spacing
  1. axis:    yes    8.362378    0.000000    0.000000    45     0.1858
  2. axis:    yes    0.000000    9.656042    0.000000    50     0.1931
  3. axis:    no     0.000000    0.000000   30.000000   160     0.1875

  Lengths:   8.362378   9.656042  30.000000
  Angles:   90.000000  90.000000  90.000000

Effective grid spacing dv^(1/3) = 0.1888

     iter     time        total  log10-change:
                         energy   eigst   dens
iter:   1 06:19:34 -11301.234531   -2.20
iter:   2 06:19:54 -11301.153642   -3.53  -2.36
iter:   3 06:20:13 -11301.083353c  -3.36  -2.44
iter:   4 06:20:33 -11301.065362c  -3.09  -2.72
iter:   5 06:20:52 -11301.066896c  -3.98  -2.98
iter:   6 06:21:12 -11301.060695c  -3.79  -3.00
iter:   7 06:21:32 -11301.060893c  -4.49  -3.56
iter:   8 06:21:51 -11301.061350c  -4.78  -3.57
iter:   9 06:22:11 -11301.061031c  -5.28  -3.50
iter:  10 06:22:31 -11301.061320c  -5.24  -3.54
iter:  11 06:22:50 -11301.061648c  -5.18  -3.49
iter:  12 06:23:10 -11301.060913c  -5.09  -3.53
iter:  13 06:23:29 -11301.060856c  -5.47  -3.71
iter:  14 06:23:49 -11301.061025c  -5.42  -3.77
iter:  15 06:24:09 -11301.060725c  -5.56  -3.99
iter:  16 06:24:28 -11301.060734c  -6.64  -4.22c
iter:  17 06:24:48 -11301.060743c  -7.04  -4.33c
iter:  18 06:25:07 -11301.060749c  -7.21  -4.35c
iter:  19 06:25:27 -11301.060789c  -6.82  -4.41c
iter:  20 06:25:47 -11301.060770c  -7.41c -4.49c

Converged after 20 iterations.

Dipole moment: (-0.000000, 24.386209, 0.028562) |e|*Ang

Energy contributions relative to reference atoms: (reference = -16332751.998567)

Kinetic:       +744.281906
Potential:     -786.410650
External:        +0.000000
XC:            -11260.514010
Entropy (-ST):   -1.342791
Local:           +2.253380
SIC:             +0.000000
--------------------------
Free energy:   -11301.732166
Extrapolated:  -11301.060770

Showing only first 2 kpts
 Kpt  Band  Eigenvalues  Occupancy
  0   232     -1.11574    1.71454
  0   233     -1.10821    1.69561
  0   234     -1.09619    1.66329
  0   235     -0.96874    1.16001

  1   232     -0.88086    0.72895
  1   233     -0.85362    0.60796
  1   234     -0.85360    0.60786
  1   235     -0.75819    0.28795


Fermi level: -0.93646

No gap
No difference between direct/indirect transitions

Forces in eV/Ang:
  0 Re   -0.00000    0.00448    0.44935
  1 Re   -0.00000    0.00448    0.44935
  2 Re    0.00000    0.00448    0.44935
  3 Re   -0.00000    0.00518    0.44865
  4 Re   -0.00000    0.00518    0.44866
  5 Re    0.00000    0.00518    0.44866
  6 Re   -0.00000    0.00448    0.44935
  7 Re   -0.00000    0.00448    0.44935
  8 Re    0.00000    0.00448    0.44935
  9 Re   -0.00000    0.00518    0.44866
 10 Re    0.00000    0.00518    0.44866
 11 Re    0.00000    0.00518    0.44866
 12 Re   -0.00000   -0.00854   -0.43104
 13 Re   -0.00000   -0.00854   -0.43103
 14 Re    0.00000   -0.00854   -0.43103
 15 Re   -0.00000   -0.00906   -0.43095
 16 Re    0.00000   -0.00906   -0.43096
 17 Re    0.00000   -0.00906   -0.43095
 18 Re   -0.00000   -0.00854   -0.43104
 19 Re   -0.00000   -0.00854   -0.43103
 20 Re    0.00000   -0.00854   -0.43103
 21 Re   -0.00000   -0.00906   -0.43095
 22 Re    0.00000   -0.00906   -0.43096
 23 Re    0.00000   -0.00906   -0.43095
 24 Re   -0.00000    0.00350   -0.01472
 25 Re   -0.00000    0.00350   -0.01472
 26 Re    0.00000    0.00350   -0.01472
 27 Re   -0.00000    0.00510   -0.01473
 28 Re    0.00000    0.00510   -0.01472
 29 Re    0.00000    0.00510   -0.01473
 30 Re    0.00000    0.00350   -0.01472
 31 Re   -0.00000    0.00350   -0.01472
 32 Re    0.00000    0.00350   -0.01472
 33 Re   -0.00000    0.00509   -0.01473
 34 Re    0.00000    0.00510   -0.01472
 35 Re    0.00000    0.00510   -0.01473

Timing:                                      incl.     excl.
-------------------------------------------------------------------
Density initialized from wave functions:     3.875     3.875   0.2% |
 Symmetrize density:                         0.000     0.000   0.0% |
Forces:                                     16.353    16.353   0.6% |
Hamiltonian:                                14.565     0.031   0.0% |
 Atomic:                                     0.001     0.001   0.0% |
  XC Correction:                             0.000     0.000   0.0% |
 Calculate atomic Hamiltonians:              0.993     0.993   0.0% |
 Communicate:                                0.553     0.553   0.0% |
 Initialize Hamiltonian:                     0.001     0.001   0.0% |
 Poisson:                                    0.010     0.010   0.0% |
 XC 3D grid:                                12.976     2.189   0.1% |
  VdW-DF integral:                          10.787     0.329   0.0% |
   Convolution:                              0.764     0.764   0.0% |
   FFT:                                      0.314     0.314   0.0% |
   gather:                                   3.119     3.119   0.1% |
   hmm1:                                     0.215     0.215   0.0% |
   hmm2:                                     0.510     0.510   0.0% |
   iFFT:                                     0.314     0.314   0.0% |
   potential:                                2.125     0.068   0.0% |
    collect:                                 0.324     0.324   0.0% |
    p1:                                      0.539     0.539   0.0% |
    p2:                                      0.824     0.824   0.0% |
    sum:                                     0.370     0.370   0.0% |
   splines:                                  3.096     3.096   0.1% |
LCAO initialization:                        48.809     0.031   0.0% |
 LCAO eigensolver:                           3.100     0.001   0.0% |
  Calculate projections:                     0.000     0.000   0.0% |
  DenseAtomicCorrection:                     0.000     0.000   0.0% |
  Distribute overlap matrix:                 2.631     2.631   0.1% |
  Orbital Layouts:                           0.459     0.459   0.0% |
  Potential matrix:                          0.000     0.000   0.0% |
  Sum over cells:                            0.008     0.008   0.0% |
 LCAO to grid:                              44.705    44.705   1.7% ||
 Set positions (LCAO WFS):                   0.974     0.909   0.0% |
  Basic WFS set positions:                   0.001     0.001   0.0% |
  Basis functions set positions:             0.000     0.000   0.0% |
  P tci:                                     0.001     0.001   0.0% |
  ST tci:                                    0.047     0.047   0.0% |
  mktci:                                     0.015     0.015   0.0% |
PWDescriptor:                                0.088     0.088   0.0% |
Redistribute:                                0.002     0.002   0.0% |
SCF-cycle:                                2479.901    44.612   1.7% ||
 Davidson:                                1933.701   372.095  14.5% |-----|
  Apply H:                                 206.664   200.028   7.8% |--|
   HMM T:                                    6.636     6.636   0.3% |
  Subspace diag:                           330.678     0.043   0.0% |
   calc_h_matrix:                          242.468    36.598   1.4% ||
    Apply H:                               205.871   199.089   7.8% |--|
     HMM T:                                  6.781     6.781   0.3% |
   diagonalize:                             15.728    15.728   0.6% |
   rotate_psi:                              72.438    72.438   2.8% ||
  calc. matrices:                          649.598   238.213   9.3% |---|
   Apply H:                                411.385   398.185  15.5% |-----|
    HMM T:                                  13.200    13.200   0.5% |
  diagonalize:                             238.340   238.340   9.3% |---|
  rotate_psi:                              136.325   136.325   5.3% |-|
 Density:                                  149.629     0.003   0.0% |
  Atomic density matrices:                   0.750     0.750   0.0% |
  Mix:                                      36.909    36.909   1.4% ||
  Multipole moments:                         0.043     0.043   0.0% |
  Pseudo density:                          111.924   111.923   4.4% |-|
   Symmetrize density:                       0.001     0.001   0.0% |
 Hamiltonian:                              347.525     0.978   0.0% |
  Atomic:                                    0.027     0.026   0.0% |
   XC Correction:                            0.000     0.000   0.0% |
  Calculate atomic Hamiltonians:            30.578    30.578   1.2% |
  Communicate:                              17.006    17.006   0.7% |
  Poisson:                                   0.285     0.285   0.0% |
  XC 3D grid:                              298.651    66.962   2.6% ||
   VdW-DF integral:                        231.689    10.111   0.4% |
    Convolution:                            23.331    23.331   0.9% |
    FFT:                                     9.706     9.706   0.4% |
    gather:                                 89.985    89.985   3.5% ||
    hmm1:                                    6.998     6.998   0.3% |
    hmm2:                                   15.958    15.958   0.6% |
    iFFT:                                    9.664     9.664   0.4% |
    potential:                              65.934     2.112   0.1% |
     collect:                               10.001    10.001   0.4% |
     p1:                                    16.819    16.819   0.7% |
     p2:                                    25.706    25.706   1.0% |
     sum:                                   11.296    11.296   0.4% |
    splines:                                 0.001     0.001   0.0% |
 Orthonormalize:                             4.434     0.002   0.0% |
  calc_s_matrix:                             0.562     0.562   0.0% |
  inverse-cholesky:                          0.236     0.236   0.0% |
  projections:                               2.446     2.446   0.1% |
  rotate_psi_s:                              1.189     1.189   0.0% |
Set symmetry:                                0.000     0.000   0.0% |
Other:                                       4.992     4.992   0.2% |
-------------------------------------------------------------------
Total:                                              2568.587 100.0%

Memory usage: 1.44 GiB
Date: Sat Apr 26 06:25:51 2025
