
  ___ ___ ___ _ _ _  
 |   |   |_  | | | | 
 | | | | | . | | | | 
 |__ |  _|___|_____|  25.1.1b1
 |___|_|             

User:   dmapa@x018.nifl.fysik.dtu.dk
Date:   Tue Apr 22 06:07:14 2025
Arch:   x86_64
Pid:    365482
CWD:    /home/cat/dmapa/gpaw/dissads/tree/surfaces/BEEF-Cu/min_surf/relax
Python: 3.11.3
gpaw:   /home/cat/dmapa/bin/venv-asrlib/gpaw/gpaw (55eb60cdf0)
_gpaw:  /home/cat/dmapa/bin/venv-asrlib/gpaw/build/lib.linux-x86_64-broadwell_el8-cpython-311/
        _gpaw.cpython-311-x86_64-linux-gnu.so (55eb60cdf0)
ase:    /home/cat/dmapa/bin/venv-asrlib/ase/ase (version 3.26.0b1-f4168b42a5)
numpy:  /home/modules/software/SciPy-bundle/2023.07-gfbf-2023a/lib/python3.11/site-packages/numpy (version 1.25.1)
scipy:  /home/modules/software/SciPy-bundle/2023.07-gfbf-2023a/lib/python3.11/site-packages/scipy (version 1.11.1)
libxc:  6.2.2
units:  Angstrom and eV
cores: 24
OpenMP: False
OMP_NUM_THREADS: 1

Input parameters:
  kpts: {size: [4, 3, 1]}
  mixer: {backend: pulay,
          beta: 0.02,
          method: separate,
          nmaxold: 5,
          weight: 50.0}
  mode: {ecut: 500,
         name: pw}
  spinpol: False
  xc: BEEF-vdW

System changes: positions, numbers, cell, pbc, initial_charges, initial_magmoms 

Initialize ...

species:
  Cu:
    name: Copper
    id: f1c4d45d90492f1bbfdcb091e8418fdf
    Z: 29.0
    valence: 11
    core: 18
    charge: 0.0
    file: /home/modules/software/GPAW-setups/24.11.0/Cu.PBE.gz
    compensation charges: {type: gauss,
                           rc: 0.33,
                           lmax: 2}
    cutoffs: {filter: 2.06,
              core: 2.43}
    projectors:
      #              energy  rcut
      - 4s(1.00)    -4.609   1.164
      - 4p(0.00)    -0.698   1.164
      - 3d(10.00)    -5.039   1.058
      -  s          22.603   1.164
      -  p          26.513   1.164
      -  d          22.172   1.058
  
    # Using partial waves for Cu as LCAO basis

Reference energy: -1620772.266280  # eV

Spin-paired calculation

Convergence criteria:
 Maximum [total energy] change in last 3 cyles: 0.0005 eV / valence electron
 Maximum integral of absolute [dens]ity change: 0.0001 electrons / valence electron
 Maximum integral of absolute [eigenst]ate change: 4e-08 eV^2 / valence electron
 Maximum number of scf [iter]ations: 333
 (Square brackets indicate name in SCF output, whereas a 'c' in
 the SCF output indicates the quantity has converged.)

Symmetries present (total): 2

  ( 1  0  0)  (-1  0  0)
  ( 0  1  0)  ( 0  1  0)
  ( 0  0  1)  ( 0  0  1)

12 k-points: 4 x 3 x 1 Monkhorst-Pack grid
4 k-points in the irreducible part of the Brillouin zone
       k-points in crystal coordinates                weights
   0:     0.12500000    0.00000000    0.00000000          2/12
   1:     0.12500000    0.33333333    0.00000000          4/12
   2:     0.37500000    0.00000000    0.00000000          2/12
   3:     0.37500000    0.33333333    0.00000000          4/12

Wave functions: Plane wave expansion
  Cutoff energy: 500.000 eV
  Number of coefficients (min, max): 54480, 54546
  Pulay-stress correction: 0.000000 eV/Ang^3 (de/decut=0.000000)
  Using FFTW library
  ScaLapack parameters: grid=1x1, blocksize=None
  Wavefunction extrapolation:
    Improved wavefunction reuse through dual PAW basis 

Occupation numbers: Fermi-Dirac:
  width: 0.1000  # eV
 

Eigensolver
   Davidson(niter=2) 

Densities:
  Coarse grid: 42*48*160 grid
  Fine grid: 84*96*320 grid
  Total Charge: 0.000000 

Density mixing:
  Method: separate
  Backend: pulay
  Linear mixing parameter: 0.02
  old densities: 5
  Damping of long wavelength oscillations: 50 

Hamiltonian:
  XC and Coulomb potentials evaluated on a 84*96*320 grid
  Using the BEEF-vdW Exchange-Correlation functional
  External potential:
    NoExternalPotential
 

XC parameters: BEEF-vdW with 2 nearest neighbor stencil

Memory estimate:
  Process memory now: 1163.77 MiB
  Calculator: 122.64 MiB
    Density: 24.56 MiB
      Arrays: 10.80 MiB
      Localized functions: 9.61 MiB
      Mixer: 4.15 MiB
    Hamiltonian: 7.26 MiB
      Arrays: 7.06 MiB
      XC: 0.00 MiB
      Poisson: 0.00 MiB
      vbar: 0.20 MiB
    Wavefunctions: 90.83 MiB
      Arrays psit_nG: 33.57 MiB
      Eigensolver: 43.21 MiB
      Projections: 0.40 MiB
      Projectors: 1.04 MiB
      PW-descriptor: 12.62 MiB

Total number of cores used: 24
Parallelization over k-points: 4
Domain decomposition: 1 x 1 x 6

Number of atoms: 36
Number of atomic orbitals: 324
Number of bands in calculation: 242
Number of valence electrons: 396
Bands to converge: occupied

... initialized

Initializing position-dependent things.

Density initialized from atomic densities
Creating initial wave functions:
  242 bands from LCAO basis set

       .------------------.  
      /|                  |  
     / |                  |  
    /  |                  |  
   /   |                  |  
  /    |                  |  
 *     |                  |  
 |     |                  |  
 |     |                  |  
 |     |                  |  
 |     |                  |  
 |     |                  |  
 |     |                  |  
 |     |                  |  
 |     |                  |  
 |     |                  |  
 |     |                  |  
 |     | Cu    Cu    Cu   |  
 |     |                  |  
 |  Cu |  Cu    CCu   Cu  |  
 |   CCu   CCu    Cu      |  
 |     |                  |  
 Cu   CCu   CCCu   Cu     |  
 |Cu   |Cu     Cu         |  
 |     |Cu    Cu    Cu    |  
 | Cu  | Cu     Cu        |  
 |     |                  |  
 |   Cu|   Cu    Cu       |  
 |     |                  |  
 |     |                  |  
 |     |                  |  
 |     |                  |  
 |     |                  |  
 |     |                  |  
 |     |                  |  
 |     |                  |  
 |     |                  |  
 |     .------------------.  
 |    /                  /   
 |   /                  /    
 |  /                  /     
 | /                  /      
 |/                  /       
 *------------------*        

Positions:
   0 Cu     1.312234    0.757619   12.857131    ( 0.0000,  0.0000,  0.0000)
   1 Cu     3.936702    0.757619   12.857131    ( 0.0000,  0.0000,  0.0000)
   2 Cu     6.561171    0.757619   12.857131    ( 0.0000,  0.0000,  0.0000)
   3 Cu     0.000000    3.030475   12.857131    ( 0.0000,  0.0000,  0.0000)
   4 Cu     2.624468    3.030475   12.857131    ( 0.0000,  0.0000,  0.0000)
   5 Cu     5.248937    3.030475   12.857131    ( 0.0000,  0.0000,  0.0000)
   6 Cu     1.312234    5.303331   12.857131    ( 0.0000,  0.0000,  0.0000)
   7 Cu     3.936702    5.303331   12.857131    ( 0.0000,  0.0000,  0.0000)
   8 Cu     6.561171    5.303331   12.857131    ( 0.0000,  0.0000,  0.0000)
   9 Cu     0.000000    7.576187   12.857131    ( 0.0000,  0.0000,  0.0000)
  10 Cu     2.624468    7.576187   12.857131    ( 0.0000,  0.0000,  0.0000)
  11 Cu     5.248937    7.576187   12.857131    ( 0.0000,  0.0000,  0.0000)
  12 Cu     0.000000    1.515237   15.000000    ( 0.0000,  0.0000,  0.0000)
  13 Cu     2.624468    1.515237   15.000000    ( 0.0000,  0.0000,  0.0000)
  14 Cu     5.248937    1.515237   15.000000    ( 0.0000,  0.0000,  0.0000)
  15 Cu     1.312234    3.788094   15.000000    ( 0.0000,  0.0000,  0.0000)
  16 Cu     3.936702    3.788094   15.000000    ( 0.0000,  0.0000,  0.0000)
  17 Cu     6.561171    3.788094   15.000000    ( 0.0000,  0.0000,  0.0000)
  18 Cu     0.000000    6.060950   15.000000    ( 0.0000,  0.0000,  0.0000)
  19 Cu     2.624468    6.060950   15.000000    ( 0.0000,  0.0000,  0.0000)
  20 Cu     5.248937    6.060950   15.000000    ( 0.0000,  0.0000,  0.0000)
  21 Cu     1.312234    8.333806   15.000000    ( 0.0000,  0.0000,  0.0000)
  22 Cu     3.936702    8.333806   15.000000    ( 0.0000,  0.0000,  0.0000)
  23 Cu     6.561171    8.333806   15.000000    ( 0.0000,  0.0000,  0.0000)
  24 Cu     0.000000    0.000000   17.142869    ( 0.0000,  0.0000,  0.0000)
  25 Cu     2.624468    0.000000   17.142869    ( 0.0000,  0.0000,  0.0000)
  26 Cu     5.248937    0.000000   17.142869    ( 0.0000,  0.0000,  0.0000)
  27 Cu     1.312234    2.272856   17.142869    ( 0.0000,  0.0000,  0.0000)
  28 Cu     3.936702    2.272856   17.142869    ( 0.0000,  0.0000,  0.0000)
  29 Cu     6.561171    2.272856   17.142869    ( 0.0000,  0.0000,  0.0000)
  30 Cu     0.000000    4.545712   17.142869    ( 0.0000,  0.0000,  0.0000)
  31 Cu     2.624468    4.545712   17.142869    ( 0.0000,  0.0000,  0.0000)
  32 Cu     5.248937    4.545712   17.142869    ( 0.0000,  0.0000,  0.0000)
  33 Cu     1.312234    6.818569   17.142869    ( 0.0000,  0.0000,  0.0000)
  34 Cu     3.936702    6.818569   17.142869    ( 0.0000,  0.0000,  0.0000)
  35 Cu     6.561171    6.818569   17.142869    ( 0.0000,  0.0000,  0.0000)

Unit cell:
           periodic     x           y           z      points  spacing
  1. axis:    yes    7.873405    0.000000    0.000000    42     0.1875
  2. axis:    yes    0.000000    9.091425    0.000000    48     0.1894
  3. axis:    no     0.000000    0.000000   30.000000   160     0.1875

  Lengths:   7.873405   9.091425  30.000000
  Angles:   90.000000  90.000000  90.000000

Effective grid spacing dv^(1/3) = 0.1881

     iter     time        total  log10-change:
                         energy   eigst   dens
iter:   1 06:07:52 -2727.443835
iter:   2 06:08:04 -2726.434888   -1.63  -1.43
iter:   3 06:08:17 -2720.556443   -1.42  -1.44
iter:   4 06:08:29 -2719.977871   -1.84  -1.67
iter:   5 06:08:42 -2719.716163   -2.81  -1.81
iter:   6 06:08:54 -2719.800610   -2.03  -1.89
iter:   7 06:09:07 -2719.581794   -2.24  -2.00
iter:   8 06:09:19 -2719.476568   -2.98  -2.36
iter:   9 06:09:32 -2719.473484c  -4.17  -2.78
iter:  10 06:09:44 -2719.379931c  -3.49  -2.77
iter:  11 06:09:57 -2719.337101c  -3.12  -2.80
iter:  12 06:10:09 -2719.366949c  -3.35  -2.83
iter:  13 06:10:22 -2719.361344c  -4.79  -2.87
iter:  14 06:10:34 -2719.344721c  -4.41  -2.87
iter:  15 06:10:47 -2719.333946c  -3.93  -2.91
iter:  16 06:10:59 -2719.333168c  -5.14  -3.01
iter:  17 06:11:12 -2719.336912c  -4.16  -3.04
iter:  18 06:11:24 -2719.367102c  -3.64  -3.04
iter:  19 06:11:37 -2719.371763c  -4.84  -3.25
iter:  20 06:11:49 -2719.362070c  -5.31  -3.28
iter:  21 06:12:02 -2719.331351c  -3.77  -3.38
iter:  22 06:12:14 -2719.329172c  -4.74  -3.61
iter:  23 06:12:27 -2719.327744c  -4.93  -3.66
iter:  24 06:12:39 -2719.327564c  -5.83  -3.77
iter:  25 06:12:52 -2719.327470c  -5.68  -3.84
iter:  26 06:13:04 -2719.327470c  -6.41  -3.93
iter:  27 06:13:17 -2719.327969c  -5.00  -3.93
iter:  28 06:13:29 -2719.328257c  -5.91  -4.15c
iter:  29 06:13:42 -2719.327596c  -5.57  -4.20c
iter:  30 06:13:54 -2719.327567c  -6.84  -4.27c
iter:  31 06:14:07 -2719.327550c  -7.32  -4.29c
iter:  32 06:14:19 -2719.327510c  -7.33  -4.34c
iter:  33 06:14:32 -2719.327381c  -5.91  -4.34c
iter:  34 06:14:44 -2719.327378c  -7.56c -4.48c

Converged after 34 iterations.

Dipole moment: (-0.000000, -0.104451, 0.000000) |e|*Ang

Energy contributions relative to reference atoms: (reference = -1620772.266280)

Kinetic:       +233.479118
Potential:     -268.551324
External:        +0.000000
XC:            -2684.206640
Entropy (-ST):   -0.364060
Local:           +0.133499
SIC:             +0.000000
--------------------------
Free energy:   -2719.509407
Extrapolated:  -2719.327378

Showing only first 2 kpts
 Kpt  Band  Eigenvalues  Occupancy
  0   196     -3.02224    1.99884
  0   197     -2.26583    0.94252
  0   198     -2.26583    0.94252
  0   199     -2.14539    0.42181

  1   196     -2.82754    1.99188
  1   197     -2.73625    1.97988
  1   198     -2.17160    0.51564
  1   199     -2.00731    0.12592


Fermi level: -2.27733

No gap
No difference between direct/indirect transitions

Forces in eV/Ang:
  0 Cu    0.00000   -0.00454    0.08331
  1 Cu    0.00000   -0.00454    0.08331
  2 Cu   -0.00000   -0.00454    0.08331
  3 Cu    0.00000   -0.00454    0.08331
  4 Cu    0.00000   -0.00454    0.08331
  5 Cu   -0.00000   -0.00454    0.08331
  6 Cu    0.00000   -0.00454    0.08331
  7 Cu    0.00000   -0.00454    0.08332
  8 Cu   -0.00000   -0.00454    0.08331
  9 Cu    0.00000   -0.00454    0.08331
 10 Cu    0.00000   -0.00454    0.08331
 11 Cu   -0.00000   -0.00454    0.08331
 12 Cu    0.00000   -0.00000   -0.00000
 13 Cu    0.00000   -0.00000    0.00000
 14 Cu   -0.00000   -0.00000    0.00000
 15 Cu   -0.00000    0.00000   -0.00000
 16 Cu    0.00000    0.00000   -0.00000
 17 Cu    0.00000    0.00000   -0.00000
 18 Cu    0.00000    0.00000   -0.00000
 19 Cu   -0.00000    0.00000   -0.00000
 20 Cu    0.00000    0.00000   -0.00000
 21 Cu   -0.00000    0.00000   -0.00000
 22 Cu    0.00000    0.00000    0.00000
 23 Cu    0.00000    0.00000   -0.00000
 24 Cu    0.00000    0.00454   -0.08332
 25 Cu   -0.00000    0.00454   -0.08331
 26 Cu    0.00000    0.00454   -0.08331
 27 Cu   -0.00000    0.00454   -0.08331
 28 Cu    0.00000    0.00454   -0.08331
 29 Cu    0.00000    0.00454   -0.08331
 30 Cu    0.00000    0.00454   -0.08331
 31 Cu   -0.00000    0.00454   -0.08331
 32 Cu    0.00000    0.00454   -0.08331
 33 Cu   -0.00000    0.00454   -0.08331
 34 Cu    0.00000    0.00454   -0.08331
 35 Cu    0.00000    0.00454   -0.08331

System changes: positions 

Initializing position-dependent things.

Density initialized from wave functions
       .------------------.  
      /|                  |  
     / |                  |  
    /  |                  |  
   /   |                  |  
  /    |                  |  
 *     |                  |  
 |     |                  |  
 |     |                  |  
 |     |                  |  
 |     |                  |  
 |     |                  |  
 |     |                  |  
 |     |                  |  
 |     |                  |  
 |     |                  |  
 |     |                  |  
 |     | Cu    Cu    Cu   |  
 |     |                  |  
 |  Cu |  Cu    CCu   Cu  |  
 |   CCu   CCu    Cu      |  
 |     |                  |  
 Cu   CCu   CCCu   Cu     |  
 |Cu   |Cu     Cu         |  
 |     |Cu    Cu    Cu    |  
 | Cu  | Cu     Cu        |  
 |     |                  |  
 |   Cu|   Cu    Cu       |  
 |     |                  |  
 |     |                  |  
 |     |                  |  
 |     |                  |  
 |     |                  |  
 |     |                  |  
 |     |                  |  
 |     |                  |  
 |     |                  |  
 |     .------------------.  
 |    /                  /   
 |   /                  /    
 |  /                  /     
 | /                  /      
 |/                  /       
 *------------------*        

Positions:
   0 Cu     1.312234    0.757619   12.857131    ( 0.0000,  0.0000,  0.0000)
   1 Cu     3.936702    0.757619   12.857131    ( 0.0000,  0.0000,  0.0000)
   2 Cu     6.561171    0.757619   12.857131    ( 0.0000,  0.0000,  0.0000)
   3 Cu     0.000000    3.030475   12.857131    ( 0.0000,  0.0000,  0.0000)
   4 Cu     2.624468    3.030475   12.857131    ( 0.0000,  0.0000,  0.0000)
   5 Cu     5.248937    3.030475   12.857131    ( 0.0000,  0.0000,  0.0000)
   6 Cu     1.312234    5.303331   12.857131    ( 0.0000,  0.0000,  0.0000)
   7 Cu     3.936702    5.303331   12.857131    ( 0.0000,  0.0000,  0.0000)
   8 Cu     6.561171    5.303331   12.857131    ( 0.0000,  0.0000,  0.0000)
   9 Cu     0.000000    7.576187   12.857131    ( 0.0000,  0.0000,  0.0000)
  10 Cu     2.624468    7.576187   12.857131    ( 0.0000,  0.0000,  0.0000)
  11 Cu     5.248937    7.576187   12.857131    ( 0.0000,  0.0000,  0.0000)
  12 Cu     0.000000    1.515237   15.000000    ( 0.0000,  0.0000,  0.0000)
  13 Cu     2.624468    1.515237   15.000000    ( 0.0000,  0.0000,  0.0000)
  14 Cu     5.248937    1.515237   15.000000    ( 0.0000,  0.0000,  0.0000)
  15 Cu     1.312234    3.788094   15.000000    ( 0.0000,  0.0000,  0.0000)
  16 Cu     3.936702    3.788094   15.000000    ( 0.0000,  0.0000,  0.0000)
  17 Cu     6.561171    3.788094   15.000000    ( 0.0000,  0.0000,  0.0000)
  18 Cu     0.000000    6.060950   15.000000    ( 0.0000,  0.0000,  0.0000)
  19 Cu     2.624468    6.060950   15.000000    ( 0.0000,  0.0000,  0.0000)
  20 Cu     5.248937    6.060950   15.000000    ( 0.0000,  0.0000,  0.0000)
  21 Cu     1.312234    8.333806   15.000000    ( 0.0000,  0.0000,  0.0000)
  22 Cu     3.936702    8.333806   15.000000    ( 0.0000,  0.0000,  0.0000)
  23 Cu     6.561171    8.333806   15.000000    ( 0.0000,  0.0000,  0.0000)
  24 Cu     0.000000    0.000065   17.141679    ( 0.0000,  0.0000,  0.0000)
  25 Cu     2.624468    0.000065   17.141679    ( 0.0000,  0.0000,  0.0000)
  26 Cu     5.248937    0.000065   17.141679    ( 0.0000,  0.0000,  0.0000)
  27 Cu     1.312234    2.272921   17.141679    ( 0.0000,  0.0000,  0.0000)
  28 Cu     3.936702    2.272921   17.141679    ( 0.0000,  0.0000,  0.0000)
  29 Cu     6.561171    2.272921   17.141679    ( 0.0000,  0.0000,  0.0000)
  30 Cu     0.000000    4.545777   17.141679    ( 0.0000,  0.0000,  0.0000)
  31 Cu     2.624468    4.545777   17.141679    ( 0.0000,  0.0000,  0.0000)
  32 Cu     5.248937    4.545777   17.141679    ( 0.0000,  0.0000,  0.0000)
  33 Cu     1.312234    6.818634   17.141679    ( 0.0000,  0.0000,  0.0000)
  34 Cu     3.936702    6.818634   17.141679    ( 0.0000,  0.0000,  0.0000)
  35 Cu     6.561171    6.818634   17.141679    ( 0.0000,  0.0000,  0.0000)

Unit cell:
           periodic     x           y           z      points  spacing
  1. axis:    yes    7.873405    0.000000    0.000000    42     0.1875
  2. axis:    yes    0.000000    9.091425    0.000000    48     0.1894
  3. axis:    no     0.000000    0.000000   30.000000   160     0.1875

  Lengths:   7.873405   9.091425  30.000000
  Angles:   90.000000  90.000000  90.000000

Effective grid spacing dv^(1/3) = 0.1881

     iter     time        total  log10-change:
                         energy   eigst   dens
iter:   1 06:15:02 -2719.329757   -4.73
iter:   2 06:15:15 -2719.329372   -6.55  -3.54
iter:   3 06:15:27 -2719.328713c  -5.32  -3.60
iter:   4 06:15:40 -2719.328630c  -5.91  -3.93
iter:   5 06:15:52 -2719.328655c  -6.23  -4.25c
iter:   6 06:16:05 -2719.328648c  -6.26  -4.36c
iter:   7 06:16:17 -2719.328656c  -7.18  -4.77c
iter:   8 06:16:30 -2719.328637c  -7.56c -4.82c

Converged after 8 iterations.

Dipole moment: (-0.000000, -0.114027, 0.001387) |e|*Ang

Energy contributions relative to reference atoms: (reference = -1620772.266280)

Kinetic:       +232.265219
Potential:     -267.372048
External:        +0.000000
XC:            -2684.195389
Entropy (-ST):   -0.363910
Local:           +0.155536
SIC:             +0.000000
--------------------------
Free energy:   -2719.510592
Extrapolated:  -2719.328637

Showing only first 2 kpts
 Kpt  Band  Eigenvalues  Occupancy
  0   196     -3.02037    1.99884
  0   197     -2.26404    0.94306
  0   198     -2.26404    0.94306
  0   199     -2.14332    0.42125

  1   196     -2.82539    1.99186
  1   197     -2.73458    1.97993
  1   198     -2.16985    0.51619
  1   199     -2.00572    0.12628


Fermi level: -2.27544

No gap
No difference between direct/indirect transitions

Forces in eV/Ang:
  0 Cu   -0.00000   -0.00454    0.08332
  1 Cu    0.00000   -0.00454    0.08332
  2 Cu    0.00000   -0.00454    0.08332
  3 Cu    0.00000   -0.00454    0.08332
  4 Cu   -0.00000   -0.00454    0.08332
  5 Cu    0.00000   -0.00454    0.08332
  6 Cu    0.00000   -0.00454    0.08332
  7 Cu    0.00000   -0.00454    0.08332
  8 Cu   -0.00000   -0.00454    0.08332
  9 Cu    0.00000   -0.00454    0.08332
 10 Cu   -0.00000   -0.00454    0.08332
 11 Cu    0.00000   -0.00454    0.08332
 12 Cu    0.00000    0.00001   -0.00243
 13 Cu   -0.00000    0.00001   -0.00243
 14 Cu    0.00000    0.00001   -0.00243
 15 Cu    0.00000    0.00002   -0.00243
 16 Cu    0.00000    0.00002   -0.00243
 17 Cu   -0.00000    0.00002   -0.00243
 18 Cu    0.00000    0.00002   -0.00243
 19 Cu    0.00000    0.00001   -0.00243
 20 Cu   -0.00000    0.00001   -0.00243
 21 Cu   -0.00000    0.00002   -0.00243
 22 Cu    0.00000    0.00002   -0.00243
 23 Cu    0.00000    0.00002   -0.00243
 24 Cu    0.00000    0.00434   -0.07817
 25 Cu    0.00000    0.00434   -0.07817
 26 Cu   -0.00000    0.00434   -0.07817
 27 Cu    0.00000    0.00434   -0.07817
 28 Cu    0.00000    0.00434   -0.07817
 29 Cu   -0.00000    0.00434   -0.07817
 30 Cu    0.00000    0.00434   -0.07817
 31 Cu    0.00000    0.00434   -0.07817
 32 Cu   -0.00000    0.00434   -0.07817
 33 Cu    0.00000    0.00434   -0.07817
 34 Cu    0.00000    0.00434   -0.07817
 35 Cu   -0.00000    0.00434   -0.07817

System changes: positions 

Initializing position-dependent things.

Density initialized from wave functions
       .------------------.  
      /|                  |  
     / |                  |  
    /  |                  |  
   /   |                  |  
  /    |                  |  
 *     |                  |  
 |     |                  |  
 |     |                  |  
 |     |                  |  
 |     |                  |  
 |     |                  |  
 |     |                  |  
 |     |                  |  
 |     |                  |  
 |     |                  |  
 |     |                  |  
 |     | Cu    Cu    Cu   |  
 |     |                  |  
 |  Cu |  Cu    CCu   Cu  |  
 |   CCu   CCu    Cu      |  
 |     |                  |  
 Cu   CCu   CCCu   Cu     |  
 |Cu   |Cu     Cu         |  
 |     |Cu    Cu    Cu    |  
 | Cu  | Cu     Cu        |  
 |     |                  |  
 |   Cu|   Cu    Cu       |  
 |     |                  |  
 |     |                  |  
 |     |                  |  
 |     |                  |  
 |     |                  |  
 |     |                  |  
 |     |                  |  
 |     |                  |  
 |     |                  |  
 |     .------------------.  
 |    /                  /   
 |   /                  /    
 |  /                  /     
 | /                  /      
 |/                  /       
 *------------------*        

Positions:
   0 Cu     1.312234    0.757619   12.857131    ( 0.0000,  0.0000,  0.0000)
   1 Cu     3.936702    0.757619   12.857131    ( 0.0000,  0.0000,  0.0000)
   2 Cu     6.561171    0.757619   12.857131    ( 0.0000,  0.0000,  0.0000)
   3 Cu     0.000000    3.030475   12.857131    ( 0.0000,  0.0000,  0.0000)
   4 Cu     2.624468    3.030475   12.857131    ( 0.0000,  0.0000,  0.0000)
   5 Cu     5.248937    3.030475   12.857131    ( 0.0000,  0.0000,  0.0000)
   6 Cu     1.312234    5.303331   12.857131    ( 0.0000,  0.0000,  0.0000)
   7 Cu     3.936702    5.303331   12.857131    ( 0.0000,  0.0000,  0.0000)
   8 Cu     6.561171    5.303331   12.857131    ( 0.0000,  0.0000,  0.0000)
   9 Cu     0.000000    7.576187   12.857131    ( 0.0000,  0.0000,  0.0000)
  10 Cu     2.624468    7.576187   12.857131    ( 0.0000,  0.0000,  0.0000)
  11 Cu     5.248937    7.576187   12.857131    ( 0.0000,  0.0000,  0.0000)
  12 Cu     0.000000    1.515237   15.000000    ( 0.0000,  0.0000,  0.0000)
  13 Cu     2.624468    1.515237   15.000000    ( 0.0000,  0.0000,  0.0000)
  14 Cu     5.248937    1.515237   15.000000    ( 0.0000,  0.0000,  0.0000)
  15 Cu     1.312234    3.788094   15.000000    ( 0.0000,  0.0000,  0.0000)
  16 Cu     3.936702    3.788094   15.000000    ( 0.0000,  0.0000,  0.0000)
  17 Cu     6.561171    3.788094   15.000000    ( 0.0000,  0.0000,  0.0000)
  18 Cu     0.000000    6.060950   15.000000    ( 0.0000,  0.0000,  0.0000)
  19 Cu     2.624468    6.060950   15.000000    ( 0.0000,  0.0000,  0.0000)
  20 Cu     5.248937    6.060950   15.000000    ( 0.0000,  0.0000,  0.0000)
  21 Cu     1.312234    8.333806   15.000000    ( 0.0000,  0.0000,  0.0000)
  22 Cu     3.936702    8.333806   15.000000    ( 0.0000,  0.0000,  0.0000)
  23 Cu     6.561171    8.333806   15.000000    ( 0.0000,  0.0000,  0.0000)
  24 Cu     0.000000    0.001069   17.123592    ( 0.0000,  0.0000,  0.0000)
  25 Cu     2.624468    0.001069   17.123592    ( 0.0000,  0.0000,  0.0000)
  26 Cu     5.248937    0.001069   17.123592    ( 0.0000,  0.0000,  0.0000)
  27 Cu     1.312234    2.273926   17.123592    ( 0.0000,  0.0000,  0.0000)
  28 Cu     3.936702    2.273926   17.123592    ( 0.0000,  0.0000,  0.0000)
  29 Cu     6.561171    2.273926   17.123592    ( 0.0000,  0.0000,  0.0000)
  30 Cu     0.000000    4.546782   17.123592    ( 0.0000,  0.0000,  0.0000)
  31 Cu     2.624468    4.546782   17.123592    ( 0.0000,  0.0000,  0.0000)
  32 Cu     5.248937    4.546782   17.123592    ( 0.0000,  0.0000,  0.0000)
  33 Cu     1.312234    6.819638   17.123592    ( 0.0000,  0.0000,  0.0000)
  34 Cu     3.936702    6.819638   17.123592    ( 0.0000,  0.0000,  0.0000)
  35 Cu     6.561171    6.819638   17.123592    ( 0.0000,  0.0000,  0.0000)

Unit cell:
           periodic     x           y           z      points  spacing
  1. axis:    yes    7.873405    0.000000    0.000000    42     0.1875
  2. axis:    yes    0.000000    9.091425    0.000000    48     0.1894
  3. axis:    no     0.000000    0.000000   30.000000   160     0.1875

  Lengths:   7.873405   9.091425  30.000000
  Angles:   90.000000  90.000000  90.000000

Effective grid spacing dv^(1/3) = 0.1881

     iter     time        total  log10-change:
                         energy   eigst   dens
iter:   1 06:16:48 -2719.508368   -2.55
iter:   2 06:17:01 -2719.455144   -4.25  -2.44
iter:   3 06:17:13 -2719.365467c  -3.25  -2.49
iter:   4 06:17:26 -2719.347762c  -3.74  -2.78
iter:   5 06:17:38 -2719.348121c  -3.99  -3.07
iter:   6 06:17:51 -2719.343103c  -3.95  -3.19
iter:   7 06:18:03 -2719.344618c  -4.85  -3.59
iter:   8 06:18:16 -2719.341830c  -4.59  -3.69
iter:   9 06:18:28 -2719.342196c  -4.84  -3.59
iter:  10 06:18:41 -2719.342173c  -6.14  -3.81
iter:  11 06:18:53 -2719.342122c  -7.36  -3.84
iter:  12 06:19:06 -2719.341563c  -5.06  -3.85
iter:  13 06:19:18 -2719.341606c  -6.08  -3.95
iter:  14 06:19:31 -2719.341552c  -6.06  -4.09c
iter:  15 06:19:43 -2719.341559c  -7.37  -4.35c
iter:  16 06:19:56 -2719.341538c  -6.79  -4.37c
iter:  17 06:20:08 -2719.341543c  -7.67c -4.55c

Converged after 17 iterations.

Dipole moment: (-0.000000, -0.245332, 0.002161) |e|*Ang

Energy contributions relative to reference atoms: (reference = -1620772.266280)

Kinetic:       +234.305149
Potential:     -268.972574
External:        +0.000000
XC:            -2684.662017
Entropy (-ST):   -0.361631
Local:           +0.168714
SIC:             +0.000000
--------------------------
Free energy:   -2719.522358
Extrapolated:  -2719.341543

Showing only first 2 kpts
 Kpt  Band  Eigenvalues  Occupancy
  0   196     -3.02143    1.99885
  0   197     -2.26640    0.95314
  0   198     -2.26640    0.95314
  0   199     -2.13356    0.38863

  1   196     -2.81760    1.99117
  1   197     -2.74409    1.98167
  1   198     -2.17300    0.52703
  1   199     -2.01720    0.14011


Fermi level: -2.27578

No gap
No difference between direct/indirect transitions

Forces in eV/Ang:
  0 Cu    0.00000   -0.00456    0.08046
  1 Cu    0.00000   -0.00456    0.08046
  2 Cu   -0.00000   -0.00456    0.08046
  3 Cu    0.00000   -0.00456    0.08046
  4 Cu   -0.00000   -0.00456    0.08046
  5 Cu    0.00000   -0.00456    0.08046
  6 Cu   -0.00000   -0.00456    0.08046
  7 Cu    0.00000   -0.00456    0.08046
  8 Cu    0.00000   -0.00456    0.08046
  9 Cu    0.00000   -0.00456    0.08046
 10 Cu    0.00000   -0.00456    0.08046
 11 Cu   -0.00000   -0.00456    0.08046
 12 Cu    0.00000    0.00049   -0.05655
 13 Cu    0.00000    0.00050   -0.05655
 14 Cu   -0.00000    0.00050   -0.05655
 15 Cu    0.00000    0.00050   -0.05655
 16 Cu    0.00000    0.00050   -0.05655
 17 Cu   -0.00000    0.00050   -0.05655
 18 Cu    0.00000    0.00050   -0.05655
 19 Cu    0.00000    0.00050   -0.05655
 20 Cu   -0.00000    0.00050   -0.05655
 21 Cu    0.00000    0.00050   -0.05655
 22 Cu    0.00000    0.00050   -0.05655
 23 Cu   -0.00000    0.00050   -0.05655
 24 Cu    0.00000    0.00429   -0.02444
 25 Cu    0.00000    0.00429   -0.02444
 26 Cu   -0.00000    0.00429   -0.02444
 27 Cu    0.00000    0.00429   -0.02444
 28 Cu    0.00000    0.00429   -0.02444
 29 Cu   -0.00000    0.00429   -0.02444
 30 Cu    0.00000    0.00429   -0.02444
 31 Cu   -0.00000    0.00429   -0.02444
 32 Cu    0.00000    0.00429   -0.02444
 33 Cu   -0.00000    0.00429   -0.02444
 34 Cu    0.00000    0.00429   -0.02444
 35 Cu    0.00000    0.00429   -0.02444

Timing:                                      incl.     excl.
-------------------------------------------------------------------
Density initialized from wave functions:     2.022     1.929   0.2% |
 Symmetrize density:                         0.093     0.093   0.0% |
Forces:                                     12.519    12.519   1.6% ||
Hamiltonian:                                16.289     0.021   0.0% |
 Atomic:                                     0.257     0.002   0.0% |
  XC Correction:                             0.255     0.255   0.0% |
 Calculate atomic Hamiltonians:              1.203     1.203   0.2% |
 Communicate:                                0.278     0.278   0.0% |
 Initialize Hamiltonian:                     0.001     0.001   0.0% |
 Poisson:                                    0.009     0.009   0.0% |
 XC 3D grid:                                14.520     2.401   0.3% |
  VdW-DF integral:                          12.119     0.342   0.0% |
   Convolution:                              0.923     0.923   0.1% |
   FFT:                                      0.294     0.294   0.0% |
   gather:                                   2.379     2.379   0.3% |
   hmm1:                                     0.286     0.286   0.0% |
   hmm2:                                     0.533     0.533   0.1% |
   iFFT:                                     0.288     0.288   0.0% |
   potential:                                3.255     0.058   0.0% |
    collect:                                 0.248     0.248   0.0% |
    p1:                                      1.623     1.623   0.2% |
    p2:                                      0.842     0.842   0.1% |
    sum:                                     0.484     0.484   0.1% |
   splines:                                  3.819     3.819   0.5% |
LCAO initialization:                        15.607     0.048   0.0% |
 LCAO eigensolver:                           2.400     0.000   0.0% |
  Calculate projections:                     0.000     0.000   0.0% |
  DenseAtomicCorrection:                     0.000     0.000   0.0% |
  Distribute overlap matrix:                 2.327     2.327   0.3% |
  Orbital Layouts:                           0.072     0.072   0.0% |
  Potential matrix:                          0.000     0.000   0.0% |
  Sum over cells:                            0.001     0.001   0.0% |
 LCAO to grid:                              12.554    12.554   1.6% ||
 Set positions (LCAO WFS):                   0.605     0.534   0.1% |
  Basic WFS set positions:                   0.002     0.002   0.0% |
  Basis functions set positions:             0.000     0.000   0.0% |
  P tci:                                     0.000     0.000   0.0% |
  ST tci:                                    0.046     0.046   0.0% |
  mktci:                                     0.023     0.023   0.0% |
PWDescriptor:                                0.605     0.605   0.1% |
Redistribute:                                0.001     0.001   0.0% |
SCF-cycle:                                 724.060     1.996   0.3% |
 Davidson:                                 430.780   102.738  13.2% |----|
  Apply H:                                  44.312    43.261   5.6% |-|
   HMM T:                                    1.051     1.051   0.1% |
  Subspace diag:                            73.401     0.006   0.0% |
   calc_h_matrix:                           54.118    10.108   1.3% ||
    Apply H:                                44.011    43.028   5.5% |-|
     HMM T:                                  0.983     0.983   0.1% |
   diagonalize:                              2.369     2.369   0.3% |
   rotate_psi:                              16.908    16.908   2.2% ||
  calc. matrices:                          153.582    65.405   8.4% |--|
   Apply H:                                 88.178    86.175  11.1% |---|
    HMM T:                                   2.003     2.003   0.3% |
  diagonalize:                              24.821    24.821   3.2% ||
  rotate_psi:                               31.925    31.925   4.1% |-|
 Density:                                   56.092     0.001   0.0% |
  Atomic density matrices:                   0.266     0.266   0.0% |
  Mix:                                      29.540    29.540   3.8% |-|
  Multipole moments:                         0.030     0.030   0.0% |
  Pseudo density:                           26.256    23.663   3.0% ||
   Symmetrize density:                       2.593     2.593   0.3% |
 Hamiltonian:                              233.281     0.397   0.1% |
  Atomic:                                    4.789     0.031   0.0% |
   XC Correction:                            4.758     4.758   0.6% |
  Calculate atomic Hamiltonians:            22.369    22.369   2.9% ||
  Communicate:                               5.190     5.190   0.7% |
  Poisson:                                   0.167     0.167   0.0% |
  XC 3D grid:                              200.368    44.915   5.8% |-|
   VdW-DF integral:                        155.453     6.341   0.8% |
    Convolution:                            17.157    17.157   2.2% ||
    FFT:                                     5.788     5.788   0.7% |
    gather:                                 45.504    45.504   5.8% |-|
    hmm1:                                    4.879     4.879   0.6% |
    hmm2:                                    9.567     9.567   1.2% |
    iFFT:                                    5.269     5.269   0.7% |
    potential:                              60.948     1.134   0.1% |
     collect:                                4.734     4.734   0.6% |
     p1:                                    30.717    30.717   3.9% |-|
     p2:                                    16.213    16.213   2.1% ||
     sum:                                    8.150     8.150   1.0% |
    splines:                                 0.000     0.000   0.0% |
 Orthonormalize:                             1.911     0.000   0.0% |
  calc_s_matrix:                             0.249     0.249   0.0% |
  inverse-cholesky:                          0.063     0.063   0.0% |
  projections:                               1.166     1.166   0.1% |
  rotate_psi_s:                              0.433     0.433   0.1% |
Set symmetry:                                0.001     0.001   0.0% |
Other:                                       7.589     7.589   1.0% |
-------------------------------------------------------------------
Total:                                               778.694 100.0%

Memory usage: 1.30 GiB
Date: Tue Apr 22 06:20:12 2025
