
  ___ ___ ___ _ _ _  
 |   |   |_  | | | | 
 | | | | | . | | | | 
 |__ |  _|___|_____|  25.1.1b1
 |___|_|             

User:   dmapa@x138.nifl.fysik.dtu.dk
Date:   Wed Apr 23 02:15:39 2025
Arch:   x86_64
Pid:    397549
CWD:    /home/cat/dmapa/gpaw/dissads/tree/surfaces/BEEF-Rh/min_surf/relax
Python: 3.11.3
gpaw:   /home/cat/dmapa/bin/venv-asrlib/gpaw/gpaw (55eb60cdf0)
_gpaw:  /home/cat/dmapa/bin/venv-asrlib/gpaw/build/lib.linux-x86_64-broadwell_el8-cpython-311/
        _gpaw.cpython-311-x86_64-linux-gnu.so (55eb60cdf0)
ase:    /home/cat/dmapa/bin/venv-asrlib/ase/ase (version 3.26.0b1-f4168b42a5)
numpy:  /home/modules/software/SciPy-bundle/2023.07-gfbf-2023a/lib/python3.11/site-packages/numpy (version 1.25.1)
scipy:  /home/modules/software/SciPy-bundle/2023.07-gfbf-2023a/lib/python3.11/site-packages/scipy (version 1.11.1)
libxc:  6.2.2
units:  Angstrom and eV
cores: 24
OpenMP: False
OMP_NUM_THREADS: 1

Input parameters:
  kpts: {size: [4, 3, 1]}
  mixer: {backend: pulay,
          beta: 0.02,
          method: separate,
          nmaxold: 5,
          weight: 50.0}
  mode: {ecut: 500,
         name: pw}
  spinpol: False
  xc: BEEF-vdW

System changes: positions, numbers, cell, pbc, initial_charges, initial_magmoms 

Initialize ...

species:
  Rh:
    name: Rhodium
    id: 4e1d209aee696a641de1ffa1459b299f
    Z: 45.0
    valence: 15
    core: 30
    charge: 0.0
    file: /home/modules/software/GPAW-setups/24.11.0/Rh.PBE.gz
    compensation charges: {type: gauss,
                           rc: 0.38,
                           lmax: 2}
    cutoffs: {filter: 2.48,
              core: 2.35}
    projectors:
      #              energy  rcut
      - 5s(1.00)    -4.297   1.270
      - 4p(6.00)   -50.429   1.381
      - 5p(0.00)    -0.852   1.381
      - 4d(8.00)    -5.942   1.244
      -  s          22.915   1.270
      -  d          21.270   1.244
  
    # Using partial waves for Rh as LCAO basis

Reference energy: -4684847.292007  # eV

Spin-paired calculation

Convergence criteria:
 Maximum [total energy] change in last 3 cyles: 0.0005 eV / valence electron
 Maximum integral of absolute [dens]ity change: 0.0001 electrons / valence electron
 Maximum integral of absolute [eigenst]ate change: 4e-08 eV^2 / valence electron
 Maximum number of scf [iter]ations: 333
 (Square brackets indicate name in SCF output, whereas a 'c' in
 the SCF output indicates the quantity has converged.)

Symmetries present (total): 2

  ( 1  0  0)  (-1  0  0)
  ( 0  1  0)  ( 0  1  0)
  ( 0  0  1)  ( 0  0  1)

12 k-points: 4 x 3 x 1 Monkhorst-Pack grid
4 k-points in the irreducible part of the Brillouin zone
       k-points in crystal coordinates                weights
   0:     0.12500000    0.00000000    0.00000000          2/12
   1:     0.12500000    0.33333333    0.00000000          4/12
   2:     0.37500000    0.00000000    0.00000000          2/12
   3:     0.37500000    0.33333333    0.00000000          4/12

Wave functions: Plane wave expansion
  Cutoff energy: 500.000 eV
  Number of coefficients (min, max): 60310, 60392
  Pulay-stress correction: 0.000000 eV/Ang^3 (de/decut=0.000000)
  Using FFTW library
  ScaLapack parameters: grid=1x1, blocksize=None
  Wavefunction extrapolation:
    Improved wavefunction reuse through dual PAW basis 

Occupation numbers: Fermi-Dirac:
  width: 0.1000  # eV
 

Eigensolver
   Davidson(niter=2) 

Densities:
  Coarse grid: 45*50*160 grid
  Fine grid: 90*100*320 grid
  Total Charge: 0.000000 

Density mixing:
  Method: separate
  Backend: pulay
  Linear mixing parameter: 0.02
  old densities: 5
  Damping of long wavelength oscillations: 50 

Hamiltonian:
  XC and Coulomb potentials evaluated on a 90*100*320 grid
  Using the BEEF-vdW Exchange-Correlation functional
  External potential:
    NoExternalPotential
 

XC parameters: BEEF-vdW with 2 nearest neighbor stencil

Memory estimate:
  Process memory now: 2646.14 MiB
  Calculator: 169.14 MiB
    Density: 27.32 MiB
      Arrays: 12.05 MiB
      Localized functions: 10.64 MiB
      Mixer: 4.63 MiB
    Hamiltonian: 8.10 MiB
      Arrays: 7.88 MiB
      XC: 0.00 MiB
      Poisson: 0.00 MiB
      vbar: 0.22 MiB
    Wavefunctions: 133.72 MiB
      Arrays psit_nG: 50.38 MiB
      Eigensolver: 67.57 MiB
      Projections: 0.54 MiB
      Projectors: 1.15 MiB
      PW-descriptor: 14.08 MiB

Total number of cores used: 24
Parallelization over k-points: 4
Domain decomposition: 1 x 1 x 6

Number of atoms: 36
Number of atomic orbitals: 432
Number of bands in calculation: 328
Number of valence electrons: 540
Bands to converge: occupied

... initialized

Initializing position-dependent things.

Density initialized from atomic densities
Creating initial wave functions:
  328 bands from LCAO basis set

       .-------------------.  
      /|                   |  
     / |                   |  
    /  |                   |  
   /   |                   |  
  /    |                   |  
 *     |                   |  
 |     |                   |  
 |     |                   |  
 |     |                   |  
 |     |                   |  
 |     |                   |  
 |     |                   |  
 |     |                   |  
 |     |                   |  
 |     |                   |  
 |     |                   |  
 |     | Rh     Rh    Rh   |  
 |     |                   |  
 |  Rh |  RRh    Rh    Rh  |  
 |    Rh     Rh    Rh      |  
 |   Rh|    Rh    Rh       |  
 Rh   RRRh   RRh   RRh     |  
 |     |                   |  
 |Rh   |RRh    Rh    Rh    |  
 | Rh  |  Rh    Rh         |  
 |     |                   |  
 |   Rh|    Rh    Rh       |  
 |     |                   |  
 |     |                   |  
 |     |                   |  
 |     |                   |  
 |     |                   |  
 |     |                   |  
 |     |                   |  
 |     |                   |  
 |     |                   |  
 |     .-------------------.  
 |    /                   /   
 |   /                   /    
 |  /                   /     
 | /                   /      
 |/                   /       
 *-------------------*        

Positions:
   0 Rh     1.380589    0.797083   12.745508    ( 0.0000,  0.0000,  0.0000)
   1 Rh     4.141766    0.797083   12.745508    ( 0.0000,  0.0000,  0.0000)
   2 Rh     6.902944    0.797083   12.745508    ( 0.0000,  0.0000,  0.0000)
   3 Rh     0.000000    3.188333   12.745508    ( 0.0000,  0.0000,  0.0000)
   4 Rh     2.761178    3.188333   12.745508    ( 0.0000,  0.0000,  0.0000)
   5 Rh     5.522355    3.188333   12.745508    ( 0.0000,  0.0000,  0.0000)
   6 Rh     1.380589    5.579583   12.745508    ( 0.0000,  0.0000,  0.0000)
   7 Rh     4.141766    5.579583   12.745508    ( 0.0000,  0.0000,  0.0000)
   8 Rh     6.902944    5.579583   12.745508    ( 0.0000,  0.0000,  0.0000)
   9 Rh     0.000000    7.970833   12.745508    ( 0.0000,  0.0000,  0.0000)
  10 Rh     2.761178    7.970833   12.745508    ( 0.0000,  0.0000,  0.0000)
  11 Rh     5.522355    7.970833   12.745508    ( 0.0000,  0.0000,  0.0000)
  12 Rh     0.000000    1.594167   15.000000    ( 0.0000,  0.0000,  0.0000)
  13 Rh     2.761178    1.594167   15.000000    ( 0.0000,  0.0000,  0.0000)
  14 Rh     5.522355    1.594167   15.000000    ( 0.0000,  0.0000,  0.0000)
  15 Rh     1.380589    3.985417   15.000000    ( 0.0000,  0.0000,  0.0000)
  16 Rh     4.141766    3.985417   15.000000    ( 0.0000,  0.0000,  0.0000)
  17 Rh     6.902944    3.985417   15.000000    ( 0.0000,  0.0000,  0.0000)
  18 Rh     0.000000    6.376666   15.000000    ( 0.0000,  0.0000,  0.0000)
  19 Rh     2.761178    6.376666   15.000000    ( 0.0000,  0.0000,  0.0000)
  20 Rh     5.522355    6.376666   15.000000    ( 0.0000,  0.0000,  0.0000)
  21 Rh     1.380589    8.767916   15.000000    ( 0.0000,  0.0000,  0.0000)
  22 Rh     4.141766    8.767916   15.000000    ( 0.0000,  0.0000,  0.0000)
  23 Rh     6.902944    8.767916   15.000000    ( 0.0000,  0.0000,  0.0000)
  24 Rh     0.000000    0.000000   17.254492    ( 0.0000,  0.0000,  0.0000)
  25 Rh     2.761178    0.000000   17.254492    ( 0.0000,  0.0000,  0.0000)
  26 Rh     5.522355    0.000000   17.254492    ( 0.0000,  0.0000,  0.0000)
  27 Rh     1.380589    2.391250   17.254492    ( 0.0000,  0.0000,  0.0000)
  28 Rh     4.141766    2.391250   17.254492    ( 0.0000,  0.0000,  0.0000)
  29 Rh     6.902944    2.391250   17.254492    ( 0.0000,  0.0000,  0.0000)
  30 Rh     0.000000    4.782500   17.254492    ( 0.0000,  0.0000,  0.0000)
  31 Rh     2.761178    4.782500   17.254492    ( 0.0000,  0.0000,  0.0000)
  32 Rh     5.522355    4.782500   17.254492    ( 0.0000,  0.0000,  0.0000)
  33 Rh     1.380589    7.173750   17.254492    ( 0.0000,  0.0000,  0.0000)
  34 Rh     4.141766    7.173750   17.254492    ( 0.0000,  0.0000,  0.0000)
  35 Rh     6.902944    7.173750   17.254492    ( 0.0000,  0.0000,  0.0000)

Unit cell:
           periodic     x           y           z      points  spacing
  1. axis:    yes    8.283533    0.000000    0.000000    45     0.1841
  2. axis:    yes    0.000000    9.565000    0.000000    50     0.1913
  3. axis:    no     0.000000    0.000000   30.000000   160     0.1875

  Lengths:   8.283533   9.565000  30.000000
  Angles:   90.000000  90.000000  90.000000

Effective grid spacing dv^(1/3) = 0.1876

     iter     time        total  log10-change:
                         energy   eigst   dens
iter:   1 02:16:37 -5142.878613
iter:   2 02:16:55 -5142.620309   -1.28  -1.48
iter:   3 02:17:14 -5136.942527   -1.41  -1.49
iter:   4 02:17:32 -5135.885294   -1.74  -1.73
iter:   5 02:17:51 -5135.865269   -2.45  -1.92
iter:   6 02:18:10 -5135.798547c  -2.80  -1.93
iter:   7 02:18:28 -5135.692199c  -2.18  -1.96
iter:   8 02:18:47 -5135.562157c  -3.10  -2.25
iter:   9 02:19:05 -5135.466369c  -3.34  -2.32
iter:  10 02:19:24 -5135.361171c  -2.64  -2.42
iter:  11 02:19:42 -5135.366667c  -3.54  -2.99
iter:  12 02:20:01 -5135.361076c  -3.87  -3.00
iter:  13 02:20:19 -5135.362373c  -4.30  -3.12
iter:  14 02:20:38 -5135.362837c  -4.51  -3.16
iter:  15 02:20:56 -5135.362034c  -4.62  -3.22
iter:  16 02:21:15 -5135.362248c  -4.92  -3.21
iter:  17 02:21:34 -5135.361927c  -5.47  -3.25
iter:  18 02:21:52 -5135.359836c  -5.32  -3.25
iter:  19 02:22:11 -5135.358201c  -5.10  -3.31
iter:  20 02:22:29 -5135.358487c  -5.38  -3.39
iter:  21 02:22:48 -5135.358333c  -5.61  -3.42
iter:  22 02:23:06 -5135.358499c  -5.42  -3.62
iter:  23 02:23:25 -5135.358497c  -6.22  -4.05c
iter:  24 02:23:43 -5135.358444c  -6.57  -4.06c
iter:  25 02:24:02 -5135.358365c  -6.52  -4.08c
iter:  26 02:24:21 -5135.358368c  -7.41c -4.08c

Converged after 26 iterations.

Dipole moment: (-0.000000, -0.088282, 0.000006) |e|*Ang

Energy contributions relative to reference atoms: (reference = -4684847.292007)

Kinetic:       +675.239720
Potential:     -706.732499
External:        +0.000000
XC:            -5090.467547
Entropy (-ST):   -2.566052
Local:          -12.115016
SIC:             +0.000000
--------------------------
Free energy:   -5136.641394
Extrapolated:  -5135.358368

Showing only first 2 kpts
 Kpt  Band  Eigenvalues  Occupancy
  0   268     -1.71268    0.86324
  0   269     -1.64658    0.56332
  0   270     -1.64657    0.56328
  0   271     -1.64473    0.55590

  1   268     -1.79343    1.26006
  1   269     -1.78341    1.21277
  1   270     -1.77437    1.16919
  1   271     -1.71014    0.85081


Fermi level: -1.74020

No gap
No difference between direct/indirect transitions

Forces in eV/Ang:
  0 Rh    0.00000    0.00788    0.48071
  1 Rh    0.00000    0.00788    0.48071
  2 Rh   -0.00000    0.00788    0.48071
  3 Rh    0.00000    0.00766    0.48053
  4 Rh    0.00000    0.00766    0.48053
  5 Rh   -0.00000    0.00766    0.48053
  6 Rh   -0.00000    0.00788    0.48071
  7 Rh    0.00000    0.00788    0.48071
  8 Rh    0.00000    0.00788    0.48071
  9 Rh    0.00000    0.00766    0.48053
 10 Rh   -0.00000    0.00766    0.48053
 11 Rh    0.00000    0.00766    0.48053
 12 Rh    0.00000   -0.00256   -0.00057
 13 Rh   -0.00000   -0.00256   -0.00057
 14 Rh    0.00000   -0.00256   -0.00057
 15 Rh   -0.00000   -0.00280   -0.00050
 16 Rh    0.00000   -0.00280   -0.00050
 17 Rh    0.00000   -0.00280   -0.00050
 18 Rh    0.00000   -0.00256   -0.00057
 19 Rh    0.00000   -0.00256   -0.00057
 20 Rh   -0.00000   -0.00256   -0.00057
 21 Rh    0.00000   -0.00280   -0.00050
 22 Rh    0.00000   -0.00280   -0.00050
 23 Rh   -0.00000   -0.00280   -0.00050
 24 Rh    0.00000   -0.00469   -0.48017
 25 Rh    0.00000   -0.00469   -0.48017
 26 Rh   -0.00000   -0.00469   -0.48017
 27 Rh    0.00000   -0.00457   -0.48019
 28 Rh    0.00000   -0.00457   -0.48019
 29 Rh   -0.00000   -0.00457   -0.48019
 30 Rh    0.00000   -0.00469   -0.48017
 31 Rh   -0.00000   -0.00469   -0.48017
 32 Rh    0.00000   -0.00469   -0.48017
 33 Rh   -0.00000   -0.00457   -0.48019
 34 Rh    0.00000   -0.00457   -0.48019
 35 Rh    0.00000   -0.00457   -0.48019

System changes: positions 

Initializing position-dependent things.

Density initialized from wave functions
       .-------------------.  
      /|                   |  
     / |                   |  
    /  |                   |  
   /   |                   |  
  /    |                   |  
 *     |                   |  
 |     |                   |  
 |     |                   |  
 |     |                   |  
 |     |                   |  
 |     |                   |  
 |     |                   |  
 |     |                   |  
 |     |                   |  
 |     |                   |  
 |     Rh     Rh    Rh     |  
 |     | Rh    Rh     Rh   |  
 |     |                   |  
 |  Rh |  RRh    Rh    Rh  |  
 |    Rh    Rh     Rh      |  
 |   Rh|    Rh    Rh       |  
 |    RRh    RRh   RRh     |  
 |     |                   |  
 |Rh   |RRh    Rh    Rh    |  
 | Rh  |  Rh    Rh         |  
 |     |                   |  
 |   Rh|    Rh    Rh       |  
 |     |                   |  
 |     |                   |  
 |     |                   |  
 |     |                   |  
 |     |                   |  
 |     |                   |  
 |     |                   |  
 |     |                   |  
 |     |                   |  
 |     .-------------------.  
 |    /                   /   
 |   /                   /    
 |  /                   /     
 | /                   /      
 |/                   /       
 *-------------------*        

Positions:
   0 Rh     1.380589    0.797083   12.745508    ( 0.0000,  0.0000,  0.0000)
   1 Rh     4.141766    0.797083   12.745508    ( 0.0000,  0.0000,  0.0000)
   2 Rh     6.902944    0.797083   12.745508    ( 0.0000,  0.0000,  0.0000)
   3 Rh     0.000000    3.188333   12.745508    ( 0.0000,  0.0000,  0.0000)
   4 Rh     2.761178    3.188333   12.745508    ( 0.0000,  0.0000,  0.0000)
   5 Rh     5.522355    3.188333   12.745508    ( 0.0000,  0.0000,  0.0000)
   6 Rh     1.380589    5.579583   12.745508    ( 0.0000,  0.0000,  0.0000)
   7 Rh     4.141766    5.579583   12.745508    ( 0.0000,  0.0000,  0.0000)
   8 Rh     6.902944    5.579583   12.745508    ( 0.0000,  0.0000,  0.0000)
   9 Rh     0.000000    7.970833   12.745508    ( 0.0000,  0.0000,  0.0000)
  10 Rh     2.761178    7.970833   12.745508    ( 0.0000,  0.0000,  0.0000)
  11 Rh     5.522355    7.970833   12.745508    ( 0.0000,  0.0000,  0.0000)
  12 Rh     0.000000    1.594167   15.000000    ( 0.0000,  0.0000,  0.0000)
  13 Rh     2.761178    1.594167   15.000000    ( 0.0000,  0.0000,  0.0000)
  14 Rh     5.522355    1.594167   15.000000    ( 0.0000,  0.0000,  0.0000)
  15 Rh     1.380589    3.985417   15.000000    ( 0.0000,  0.0000,  0.0000)
  16 Rh     4.141766    3.985417   15.000000    ( 0.0000,  0.0000,  0.0000)
  17 Rh     6.902944    3.985417   15.000000    ( 0.0000,  0.0000,  0.0000)
  18 Rh     0.000000    6.376666   15.000000    ( 0.0000,  0.0000,  0.0000)
  19 Rh     2.761178    6.376666   15.000000    ( 0.0000,  0.0000,  0.0000)
  20 Rh     5.522355    6.376666   15.000000    ( 0.0000,  0.0000,  0.0000)
  21 Rh     1.380589    8.767916   15.000000    ( 0.0000,  0.0000,  0.0000)
  22 Rh     4.141766    8.767916   15.000000    ( 0.0000,  0.0000,  0.0000)
  23 Rh     6.902944    8.767916   15.000000    ( 0.0000,  0.0000,  0.0000)
  24 Rh     0.000000   -0.000067   17.247633    ( 0.0000,  0.0000,  0.0000)
  25 Rh     2.761178   -0.000067   17.247633    ( 0.0000,  0.0000,  0.0000)
  26 Rh     5.522355   -0.000067   17.247633    ( 0.0000,  0.0000,  0.0000)
  27 Rh     1.380589    2.391185   17.247632    ( 0.0000,  0.0000,  0.0000)
  28 Rh     4.141766    2.391185   17.247632    ( 0.0000,  0.0000,  0.0000)
  29 Rh     6.902944    2.391185   17.247632    ( 0.0000,  0.0000,  0.0000)
  30 Rh     0.000000    4.782433   17.247633    ( 0.0000,  0.0000,  0.0000)
  31 Rh     2.761178    4.782433   17.247633    ( 0.0000,  0.0000,  0.0000)
  32 Rh     5.522355    4.782433   17.247633    ( 0.0000,  0.0000,  0.0000)
  33 Rh     1.380589    7.173684   17.247632    ( 0.0000,  0.0000,  0.0000)
  34 Rh     4.141766    7.173684   17.247632    ( 0.0000,  0.0000,  0.0000)
  35 Rh     6.902944    7.173684   17.247632    ( 0.0000,  0.0000,  0.0000)

Unit cell:
           periodic     x           y           z      points  spacing
  1. axis:    yes    8.283533    0.000000    0.000000    45     0.1841
  2. axis:    yes    0.000000    9.565000    0.000000    50     0.1913
  3. axis:    no     0.000000    0.000000   30.000000   160     0.1875

  Lengths:   8.283533   9.565000  30.000000
  Angles:   90.000000  90.000000  90.000000

Effective grid spacing dv^(1/3) = 0.1876

     iter     time        total  log10-change:
                         energy   eigst   dens
iter:   1 02:24:47 -5135.468101   -3.37
iter:   2 02:25:05 -5135.426483   -4.25  -2.65
iter:   3 02:25:24 -5135.412934c  -4.52  -2.79
iter:   4 02:25:42 -5135.402823c  -4.69  -2.96
iter:   5 02:26:01 -5135.400059c  -4.62  -3.31
iter:   6 02:26:19 -5135.399901c  -4.95  -3.64
iter:   7 02:26:38 -5135.399793c  -5.68  -3.80
iter:   8 02:26:56 -5135.399621c  -5.73  -3.82
iter:   9 02:27:15 -5135.399605c  -6.43  -4.05c
iter:  10 02:27:34 -5135.399589c  -6.59  -4.14c
iter:  11 02:27:52 -5135.399576c  -6.91  -4.24c
iter:  12 02:28:11 -5135.399567c  -7.15  -4.24c
iter:  13 02:28:29 -5135.399558c  -7.03  -4.26c
iter:  14 02:28:48 -5135.399555c  -7.49c -4.35c

Converged after 14 iterations.

Dipole moment: (-0.000000, -0.079903, 0.001681) |e|*Ang

Energy contributions relative to reference atoms: (reference = -4684847.292007)

Kinetic:       +674.500021
Potential:     -705.620393
External:        +0.000000
XC:            -5090.882772
Entropy (-ST):   -2.557489
Local:          -12.117666
SIC:             +0.000000
--------------------------
Free energy:   -5136.678300
Extrapolated:  -5135.399555

Showing only first 2 kpts
 Kpt  Band  Eigenvalues  Occupancy
  0   268     -1.70558    0.85854
  0   269     -1.63952    0.55958
  0   270     -1.63950    0.55951
  0   271     -1.63843    0.55522

  1   268     -1.78599    1.25394
  1   269     -1.77814    1.21687
  1   270     -1.76727    1.16450
  1   271     -1.70501    0.85573


Fermi level: -1.73407

No gap
No difference between direct/indirect transitions

Forces in eV/Ang:
  0 Rh   -0.00000    0.00759    0.47028
  1 Rh    0.00000    0.00759    0.47028
  2 Rh    0.00000    0.00759    0.47028
  3 Rh    0.00000    0.00745    0.47065
  4 Rh   -0.00000    0.00745    0.47065
  5 Rh    0.00000    0.00745    0.47065
  6 Rh   -0.00000    0.00759    0.47028
  7 Rh    0.00000    0.00759    0.47028
  8 Rh    0.00000    0.00759    0.47028
  9 Rh    0.00000    0.00745    0.47065
 10 Rh   -0.00000    0.00745    0.47065
 11 Rh    0.00000    0.00745    0.47065
 12 Rh    0.00000   -0.00253   -0.05018
 13 Rh    0.00000   -0.00253   -0.05018
 14 Rh   -0.00000   -0.00253   -0.05018
 15 Rh   -0.00000   -0.00249   -0.05002
 16 Rh    0.00000   -0.00249   -0.05002
 17 Rh    0.00000   -0.00249   -0.05002
 18 Rh    0.00000   -0.00253   -0.05017
 19 Rh    0.00000   -0.00253   -0.05017
 20 Rh   -0.00000   -0.00253   -0.05017
 21 Rh    0.00000   -0.00249   -0.05002
 22 Rh    0.00000   -0.00249   -0.05002
 23 Rh   -0.00000   -0.00249   -0.05002
 24 Rh    0.00000   -0.00460   -0.42585
 25 Rh    0.00000   -0.00460   -0.42585
 26 Rh   -0.00000   -0.00460   -0.42585
 27 Rh    0.00000   -0.00460   -0.42602
 28 Rh    0.00000   -0.00460   -0.42602
 29 Rh   -0.00000   -0.00460   -0.42602
 30 Rh    0.00000   -0.00460   -0.42585
 31 Rh   -0.00000   -0.00460   -0.42585
 32 Rh    0.00000   -0.00460   -0.42585
 33 Rh    0.00000   -0.00460   -0.42602
 34 Rh    0.00000   -0.00460   -0.42602
 35 Rh   -0.00000   -0.00460   -0.42602

System changes: positions 

Initializing position-dependent things.

Density initialized from wave functions
       .-------------------.  
      /|                   |  
     / |                   |  
    /  |                   |  
   /   |                   |  
  /    |                   |  
 *     |                   |  
 |     |                   |  
 |     |                   |  
 |     |                   |  
 |     |                   |  
 |     |                   |  
 |     |                   |  
 |     |                   |  
 |     |                   |  
 |     |                   |  
 |     Rh     Rh    Rh     |  
 |     | Rh    Rh     Rh   |  
 |     |                   |  
 |  Rh |  RRh    Rh    Rh  |  
 |    Rh    Rh     Rh      |  
 |   Rh|    Rh    Rh       |  
 |    RRh    RRh   RRh     |  
 |     |                   |  
 |Rh   |RRh    Rh    Rh    |  
 | Rh  |  Rh    Rh         |  
 |     |                   |  
 |   Rh|    Rh    Rh       |  
 |     |                   |  
 |     |                   |  
 |     |                   |  
 |     |                   |  
 |     |                   |  
 |     |                   |  
 |     |                   |  
 |     |                   |  
 |     |                   |  
 |     .-------------------.  
 |    /                   /   
 |   /                   /    
 |  /                   /     
 | /                   /      
 |/                   /       
 *-------------------*        

Positions:
   0 Rh     1.380589    0.797083   12.745508    ( 0.0000,  0.0000,  0.0000)
   1 Rh     4.141766    0.797083   12.745508    ( 0.0000,  0.0000,  0.0000)
   2 Rh     6.902944    0.797083   12.745508    ( 0.0000,  0.0000,  0.0000)
   3 Rh     0.000000    3.188333   12.745508    ( 0.0000,  0.0000,  0.0000)
   4 Rh     2.761178    3.188333   12.745508    ( 0.0000,  0.0000,  0.0000)
   5 Rh     5.522355    3.188333   12.745508    ( 0.0000,  0.0000,  0.0000)
   6 Rh     1.380589    5.579583   12.745508    ( 0.0000,  0.0000,  0.0000)
   7 Rh     4.141766    5.579583   12.745508    ( 0.0000,  0.0000,  0.0000)
   8 Rh     6.902944    5.579583   12.745508    ( 0.0000,  0.0000,  0.0000)
   9 Rh     0.000000    7.970833   12.745508    ( 0.0000,  0.0000,  0.0000)
  10 Rh     2.761178    7.970833   12.745508    ( 0.0000,  0.0000,  0.0000)
  11 Rh     5.522355    7.970833   12.745508    ( 0.0000,  0.0000,  0.0000)
  12 Rh     0.000000    1.594167   15.000000    ( 0.0000,  0.0000,  0.0000)
  13 Rh     2.761178    1.594167   15.000000    ( 0.0000,  0.0000,  0.0000)
  14 Rh     5.522355    1.594167   15.000000    ( 0.0000,  0.0000,  0.0000)
  15 Rh     1.380589    3.985417   15.000000    ( 0.0000,  0.0000,  0.0000)
  16 Rh     4.141766    3.985417   15.000000    ( 0.0000,  0.0000,  0.0000)
  17 Rh     6.902944    3.985417   15.000000    ( 0.0000,  0.0000,  0.0000)
  18 Rh     0.000000    6.376666   15.000000    ( 0.0000,  0.0000,  0.0000)
  19 Rh     2.761178    6.376666   15.000000    ( 0.0000,  0.0000,  0.0000)
  20 Rh     5.522355    6.376666   15.000000    ( 0.0000,  0.0000,  0.0000)
  21 Rh     1.380589    8.767916   15.000000    ( 0.0000,  0.0000,  0.0000)
  22 Rh     4.141766    8.767916   15.000000    ( 0.0000,  0.0000,  0.0000)
  23 Rh     6.902944    8.767916   15.000000    ( 0.0000,  0.0000,  0.0000)
  24 Rh     0.000000   -0.000648   17.193776    ( 0.0000,  0.0000,  0.0000)
  25 Rh     2.761178   -0.000648   17.193776    ( 0.0000,  0.0000,  0.0000)
  26 Rh     5.522355   -0.000648   17.193776    ( 0.0000,  0.0000,  0.0000)
  27 Rh     1.380589    2.390603   17.193753    ( 0.0000,  0.0000,  0.0000)
  28 Rh     4.141766    2.390603   17.193754    ( 0.0000,  0.0000,  0.0000)
  29 Rh     6.902944    2.390603   17.193753    ( 0.0000,  0.0000,  0.0000)
  30 Rh    -0.000000    4.781851   17.193776    ( 0.0000,  0.0000,  0.0000)
  31 Rh     2.761178    4.781851   17.193776    ( 0.0000,  0.0000,  0.0000)
  32 Rh     5.522355    4.781851   17.193776    ( 0.0000,  0.0000,  0.0000)
  33 Rh     1.380589    7.173103   17.193754    ( 0.0000,  0.0000,  0.0000)
  34 Rh     4.141766    7.173103   17.193753    ( 0.0000,  0.0000,  0.0000)
  35 Rh     6.902944    7.173103   17.193754    ( 0.0000,  0.0000,  0.0000)

Unit cell:
           periodic     x           y           z      points  spacing
  1. axis:    yes    8.283533    0.000000    0.000000    45     0.1841
  2. axis:    yes    0.000000    9.565000    0.000000    50     0.1913
  3. axis:    no     0.000000    0.000000   30.000000   160     0.1875

  Lengths:   8.283533   9.565000  30.000000
  Angles:   90.000000  90.000000  90.000000

Effective grid spacing dv^(1/3) = 0.1876

     iter     time        total  log10-change:
                         energy   eigst   dens
iter:   1 02:29:14 -5139.029805   -1.55
iter:   2 02:29:32 -5136.620013   -2.63  -1.76
iter:   3 02:29:51 -5135.897594   -2.55  -2.00
iter:   4 02:30:09 -5135.801643   -3.36  -2.29
iter:   5 02:30:28 -5135.674704c  -3.14  -2.45
iter:   6 02:30:47 -5135.626051c  -3.03  -2.62
iter:   7 02:31:05 -5135.617525c  -4.07  -2.86
iter:   8 02:31:24 -5135.616158c  -4.02  -3.06
iter:   9 02:31:42 -5135.614741c  -4.29  -3.22
iter:  10 02:32:01 -5135.614420c  -4.96  -3.33
iter:  11 02:32:19 -5135.614544c  -4.83  -3.37
iter:  12 02:32:38 -5135.614122c  -5.10  -3.42
iter:  13 02:32:56 -5135.613863c  -5.06  -3.55
iter:  14 02:33:15 -5135.613687c  -5.75  -3.72
iter:  15 02:33:33 -5135.613624c  -5.96  -3.74
iter:  16 02:33:52 -5135.613623c  -6.07  -3.75
iter:  17 02:34:11 -5135.613541c  -6.26  -3.81
iter:  18 02:34:29 -5135.613570c  -5.79  -3.85
iter:  19 02:34:48 -5135.613441c  -6.38  -3.98
iter:  20 02:35:06 -5135.613499c  -6.93  -4.09c
iter:  21 02:35:25 -5135.613446c  -6.59  -4.07c
iter:  22 02:35:43 -5135.613456c  -7.35  -4.21c
iter:  23 02:36:02 -5135.613509c  -7.03  -4.21c
iter:  24 02:36:20 -5135.613545c  -7.39  -4.22c
iter:  25 02:36:39 -5135.613532c  -7.18  -4.22c
iter:  26 02:36:57 -5135.613592c  -7.43c -4.25c

Converged after 26 iterations.

Dipole moment: (-0.000000, 0.006171, 0.002036) |e|*Ang

Energy contributions relative to reference atoms: (reference = -4684847.292007)

Kinetic:       +693.914198
Potential:     -722.071952
External:        +0.000000
XC:            -5094.147190
Entropy (-ST):   -2.492095
Local:          -12.062601
SIC:             +0.000000
--------------------------
Free energy:   -5136.859640
Extrapolated:  -5135.613592

Showing only first 2 kpts
 Kpt  Band  Eigenvalues  Occupancy
  0   268     -1.68335    0.82373
  0   269     -1.62325    0.55486
  0   270     -1.61737    0.53159
  0   271     -1.61733    0.53144

  1   268     -1.77087    1.25379
  1   269     -1.75993    1.20196
  1   270     -1.74485    1.12867
  1   271     -1.69743    0.89267


Fermi level: -1.71898

No gap
No difference between direct/indirect transitions

Forces in eV/Ang:
  0 Rh    0.00000    0.00710    0.44972
  1 Rh    0.00000    0.00710    0.44972
  2 Rh   -0.00000    0.00710    0.44972
  3 Rh    0.00000    0.00694    0.44889
  4 Rh   -0.00000    0.00694    0.44889
  5 Rh    0.00000    0.00694    0.44889
  6 Rh    0.00000    0.00710    0.44972
  7 Rh    0.00000    0.00710    0.44972
  8 Rh   -0.00000    0.00710    0.44972
  9 Rh    0.00000    0.00694    0.44889
 10 Rh    0.00000    0.00694    0.44889
 11 Rh   -0.00000    0.00694    0.44889
 12 Rh    0.00000   -0.00115   -0.31610
 13 Rh    0.00000   -0.00115   -0.31610
 14 Rh   -0.00000   -0.00115   -0.31610
 15 Rh    0.00000   -0.00156   -0.31640
 16 Rh    0.00000   -0.00156   -0.31640
 17 Rh   -0.00000   -0.00156   -0.31640
 18 Rh    0.00000   -0.00115   -0.31610
 19 Rh   -0.00000   -0.00115   -0.31610
 20 Rh    0.00000   -0.00115   -0.31610
 21 Rh   -0.00000   -0.00156   -0.31640
 22 Rh    0.00000   -0.00156   -0.31640
 23 Rh    0.00000   -0.00156   -0.31640
 24 Rh    0.00000   -0.00518   -0.11052
 25 Rh    0.00000   -0.00518   -0.11052
 26 Rh   -0.00000   -0.00518   -0.11052
 27 Rh    0.00000   -0.00525   -0.10991
 28 Rh    0.00000   -0.00525   -0.10991
 29 Rh   -0.00000   -0.00525   -0.10991
 30 Rh    0.00000   -0.00518   -0.11052
 31 Rh   -0.00000   -0.00518   -0.11052
 32 Rh    0.00000   -0.00518   -0.11052
 33 Rh   -0.00000   -0.00525   -0.10991
 34 Rh    0.00000   -0.00525   -0.10991
 35 Rh    0.00000   -0.00525   -0.10991

System changes: positions 

Initializing position-dependent things.

Density initialized from wave functions
       .-------------------.  
      /|                   |  
     / |                   |  
    /  |                   |  
   /   |                   |  
  /    |                   |  
 *     |                   |  
 |     |                   |  
 |     |                   |  
 |     |                   |  
 |     |                   |  
 |     |                   |  
 |     |                   |  
 |     |                   |  
 |     |                   |  
 |     |                   |  
 |     Rh     Rh    Rh     |  
 |     | Rh    Rh     Rh   |  
 |     |                   |  
 |  Rh |  RRh    Rh    Rh  |  
 |    Rh    Rh     Rh      |  
 |   Rh|    Rh    Rh       |  
 |    RRh    RRh   RRh     |  
 |     |                   |  
 |Rh   |RRh    Rh    Rh    |  
 | Rh  |  Rh    Rh         |  
 |     |                   |  
 |   Rh|    Rh    Rh       |  
 |     |                   |  
 |     |                   |  
 |     |                   |  
 |     |                   |  
 |     |                   |  
 |     |                   |  
 |     |                   |  
 |     |                   |  
 |     |                   |  
 |     .-------------------.  
 |    /                   /   
 |   /                   /    
 |  /                   /     
 | /                   /      
 |/                   /       
 *-------------------*        

Positions:
   0 Rh     1.380589    0.797083   12.745508    ( 0.0000,  0.0000,  0.0000)
   1 Rh     4.141766    0.797083   12.745508    ( 0.0000,  0.0000,  0.0000)
   2 Rh     6.902944    0.797083   12.745508    ( 0.0000,  0.0000,  0.0000)
   3 Rh     0.000000    3.188333   12.745508    ( 0.0000,  0.0000,  0.0000)
   4 Rh     2.761178    3.188333   12.745508    ( 0.0000,  0.0000,  0.0000)
   5 Rh     5.522355    3.188333   12.745508    ( 0.0000,  0.0000,  0.0000)
   6 Rh     1.380589    5.579583   12.745508    ( 0.0000,  0.0000,  0.0000)
   7 Rh     4.141766    5.579583   12.745508    ( 0.0000,  0.0000,  0.0000)
   8 Rh     6.902944    5.579583   12.745508    ( 0.0000,  0.0000,  0.0000)
   9 Rh     0.000000    7.970833   12.745508    ( 0.0000,  0.0000,  0.0000)
  10 Rh     2.761178    7.970833   12.745508    ( 0.0000,  0.0000,  0.0000)
  11 Rh     5.522355    7.970833   12.745508    ( 0.0000,  0.0000,  0.0000)
  12 Rh     0.000000    1.594167   15.000000    ( 0.0000,  0.0000,  0.0000)
  13 Rh     2.761178    1.594167   15.000000    ( 0.0000,  0.0000,  0.0000)
  14 Rh     5.522355    1.594167   15.000000    ( 0.0000,  0.0000,  0.0000)
  15 Rh     1.380589    3.985417   15.000000    ( 0.0000,  0.0000,  0.0000)
  16 Rh     4.141766    3.985417   15.000000    ( 0.0000,  0.0000,  0.0000)
  17 Rh     6.902944    3.985417   15.000000    ( 0.0000,  0.0000,  0.0000)
  18 Rh     0.000000    6.376666   15.000000    ( 0.0000,  0.0000,  0.0000)
  19 Rh     2.761178    6.376666   15.000000    ( 0.0000,  0.0000,  0.0000)
  20 Rh     5.522355    6.376666   15.000000    ( 0.0000,  0.0000,  0.0000)
  21 Rh     1.380589    8.767916   15.000000    ( 0.0000,  0.0000,  0.0000)
  22 Rh     4.141766    8.767916   15.000000    ( 0.0000,  0.0000,  0.0000)
  23 Rh     6.902944    8.767916   15.000000    ( 0.0000,  0.0000,  0.0000)
  24 Rh     0.000000   -0.000928   17.174959    ( 0.0000,  0.0000,  0.0000)
  25 Rh     2.761178   -0.000928   17.174959    ( 0.0000,  0.0000,  0.0000)
  26 Rh     5.522355   -0.000928   17.174959    ( 0.0000,  0.0000,  0.0000)
  27 Rh     1.380589    2.390321   17.174941    ( 0.0000,  0.0000,  0.0000)
  28 Rh     4.141766    2.390321   17.174941    ( 0.0000,  0.0000,  0.0000)
  29 Rh     6.902944    2.390321   17.174941    ( 0.0000,  0.0000,  0.0000)
  30 Rh    -0.000000    4.781571   17.174959    ( 0.0000,  0.0000,  0.0000)
  31 Rh     2.761178    4.781571   17.174959    ( 0.0000,  0.0000,  0.0000)
  32 Rh     5.522355    4.781571   17.174959    ( 0.0000,  0.0000,  0.0000)
  33 Rh     1.380589    7.172821   17.174941    ( 0.0000,  0.0000,  0.0000)
  34 Rh     4.141766    7.172821   17.174941    ( 0.0000,  0.0000,  0.0000)
  35 Rh     6.902944    7.172821   17.174941    ( 0.0000,  0.0000,  0.0000)

Unit cell:
           periodic     x           y           z      points  spacing
  1. axis:    yes    8.283533    0.000000    0.000000    45     0.1841
  2. axis:    yes    0.000000    9.565000    0.000000    50     0.1913
  3. axis:    no     0.000000    0.000000   30.000000   160     0.1875

  Lengths:   8.283533   9.565000  30.000000
  Angles:   90.000000  90.000000  90.000000

Effective grid spacing dv^(1/3) = 0.1876

     iter     time        total  log10-change:
                         energy   eigst   dens
iter:   1 02:37:23 -5136.183348   -2.44
iter:   2 02:37:42 -5135.868493   -3.29  -2.21
iter:   3 02:38:01 -5135.726915   -3.67  -2.33
iter:   4 02:38:19 -5135.660977c  -3.72  -2.55
iter:   5 02:38:38 -5135.641389c  -3.88  -2.90
iter:   6 02:38:56 -5135.638313c  -4.08  -3.12
iter:   7 02:39:15 -5135.637650c  -5.10  -3.33
iter:   8 02:39:33 -5135.637079c  -5.16  -3.43
iter:   9 02:39:52 -5135.636655c  -5.22  -3.55
iter:  10 02:40:10 -5135.636677c  -5.68  -3.68
iter:  11 02:40:29 -5135.636676c  -5.80  -3.74
iter:  12 02:40:47 -5135.636663c  -6.25  -3.80
iter:  13 02:41:06 -5135.636494c  -5.80  -3.82
iter:  14 02:41:24 -5135.636523c  -6.23  -4.06c
iter:  15 02:41:43 -5135.636468c  -6.67  -4.21c
iter:  16 02:42:02 -5135.636477c  -6.89  -4.23c
iter:  17 02:42:20 -5135.636441c  -7.08  -4.28c
iter:  18 02:42:39 -5135.636439c  -7.36  -4.40c
iter:  19 02:42:57 -5135.636448c  -7.16  -4.46c
iter:  20 02:43:16 -5135.636453c  -7.60c -4.59c

Converged after 20 iterations.

Dipole moment: (0.000000, 0.046441, 0.001364) |e|*Ang

Energy contributions relative to reference atoms: (reference = -4684847.292007)

Kinetic:       +702.201903
Potential:     -729.141688
External:        +0.000000
XC:            -5095.427674
Entropy (-ST):   -2.469768
Local:          -12.034110
SIC:             +0.000000
--------------------------
Free energy:   -5136.871337
Extrapolated:  -5135.636453

Showing only first 2 kpts
 Kpt  Band  Eigenvalues  Occupancy
  0   268     -1.67788    0.81222
  0   269     -1.62213    0.56277
  0   270     -1.61198    0.52265
  0   271     -1.61196    0.52258

  1   268     -1.77104    1.26900
  1   269     -1.75243    1.18071
  1   270     -1.73915    1.11578
  1   271     -1.69707    0.90620


Fermi level: -1.71589

No gap
No difference between direct/indirect transitions

Forces in eV/Ang:
  0 Rh   -0.00000    0.00696    0.42833
  1 Rh    0.00000    0.00696    0.42833
  2 Rh    0.00000    0.00696    0.42833
  3 Rh    0.00000    0.00687    0.42847
  4 Rh    0.00000    0.00687    0.42847
  5 Rh   -0.00000    0.00687    0.42847
  6 Rh    0.00000    0.00696    0.42833
  7 Rh    0.00000    0.00696    0.42833
  8 Rh   -0.00000    0.00696    0.42833
  9 Rh    0.00000    0.00687    0.42847
 10 Rh   -0.00000    0.00687    0.42847
 11 Rh    0.00000    0.00687    0.42847
 12 Rh    0.00000   -0.00112   -0.43609
 13 Rh   -0.00000   -0.00111   -0.43609
 14 Rh    0.00000   -0.00111   -0.43609
 15 Rh    0.00000   -0.00121   -0.43611
 16 Rh    0.00000   -0.00121   -0.43611
 17 Rh   -0.00000   -0.00121   -0.43611
 18 Rh    0.00000   -0.00111   -0.43609
 19 Rh    0.00000   -0.00112   -0.43609
 20 Rh   -0.00000   -0.00112   -0.43609
 21 Rh   -0.00000   -0.00121   -0.43611
 22 Rh    0.00000   -0.00121   -0.43611
 23 Rh    0.00000   -0.00121   -0.43611
 24 Rh    0.00000   -0.00550    0.01304
 25 Rh   -0.00000   -0.00550    0.01304
 26 Rh    0.00000   -0.00550    0.01304
 27 Rh    0.00000   -0.00549    0.01335
 28 Rh    0.00000   -0.00549    0.01335
 29 Rh   -0.00000   -0.00549    0.01335
 30 Rh    0.00000   -0.00550    0.01304
 31 Rh    0.00000   -0.00550    0.01304
 32 Rh   -0.00000   -0.00550    0.01304
 33 Rh   -0.00000   -0.00549    0.01335
 34 Rh    0.00000   -0.00549    0.01335
 35 Rh    0.00000   -0.00549    0.01335

Timing:                                      incl.     excl.
-------------------------------------------------------------------
Density initialized from wave functions:     3.870     3.715   0.2% |
 Symmetrize density:                         0.156     0.156   0.0% |
Forces:                                     20.339    20.339   1.2% |
Hamiltonian:                                22.566     0.032   0.0% |
 Atomic:                                     0.423     0.002   0.0% |
  XC Correction:                             0.421     0.421   0.0% |
 Calculate atomic Hamiltonians:              1.772     1.772   0.1% |
 Communicate:                                0.474     0.474   0.0% |
 Initialize Hamiltonian:                     0.001     0.001   0.0% |
 Poisson:                                    0.012     0.012   0.0% |
 XC 3D grid:                                19.852     3.565   0.2% |
  VdW-DF integral:                          16.287     0.566   0.0% |
   Convolution:                              1.363     1.363   0.1% |
   FFT:                                      0.466     0.466   0.0% |
   gather:                                   3.679     3.679   0.2% |
   hmm1:                                     0.386     0.386   0.0% |
   hmm2:                                     0.797     0.797   0.0% |
   iFFT:                                     0.435     0.435   0.0% |
   potential:                                4.777     0.069   0.0% |
    collect:                                 0.365     0.365   0.0% |
    p1:                                      2.356     2.356   0.1% |
    p2:                                      1.234     1.234   0.1% |
    sum:                                     0.754     0.754   0.0% |
   splines:                                  3.817     3.817   0.2% |
LCAO initialization:                        29.192     0.075   0.0% |
 LCAO eigensolver:                           3.785     0.001   0.0% |
  Calculate projections:                     0.000     0.000   0.0% |
  DenseAtomicCorrection:                     0.000     0.000   0.0% |
  Distribute overlap matrix:                 3.624     3.624   0.2% |
  Orbital Layouts:                           0.158     0.158   0.0% |
  Potential matrix:                          0.000     0.000   0.0% |
  Sum over cells:                            0.002     0.002   0.0% |
 LCAO to grid:                              24.611    24.611   1.5% ||
 Set positions (LCAO WFS):                   0.721     0.641   0.0% |
  Basic WFS set positions:                   0.002     0.002   0.0% |
  Basis functions set positions:             0.000     0.000   0.0% |
  P tci:                                     0.000     0.000   0.0% |
  ST tci:                                    0.057     0.057   0.0% |
  mktci:                                     0.020     0.020   0.0% |
PWDescriptor:                                0.468     0.468   0.0% |
Redistribute:                                0.002     0.002   0.0% |
SCF-cycle:                                1575.728     0.568   0.0% |
 Davidson:                                1082.119   222.947  13.4% |----|
  Apply H:                                 102.414   100.202   6.0% |-|
   HMM T:                                    2.212     2.212   0.1% |
  Subspace diag:                           184.452     0.012   0.0% |
   calc_h_matrix:                          129.699    29.634   1.8% ||
    Apply H:                               100.065    97.826   5.9% |-|
     HMM T:                                  2.239     2.239   0.1% |
   diagonalize:                              5.968     5.968   0.4% |
   rotate_psi:                              48.773    48.773   2.9% ||
  calc. matrices:                          394.683   194.824  11.7% |----|
   Apply H:                                199.859   195.532  11.8% |----|
    HMM T:                                   4.327     4.327   0.3% |
  diagonalize:                              84.779    84.779   5.1% |-|
  rotate_psi:                               92.843    92.843   5.6% |-|
 Density:                                  105.778     0.002   0.0% |
  Atomic density matrices:                   0.446     0.446   0.0% |
  Mix:                                      48.155    48.155   2.9% ||
  Multipole moments:                         0.045     0.045   0.0% |
  Pseudo density:                           57.131    52.859   3.2% ||
   Symmetrize density:                       4.272     4.272   0.3% |
 Hamiltonian:                              383.015     0.644   0.0% |
  Atomic:                                    8.763     0.048   0.0% |
   XC Correction:                            8.714     8.714   0.5% |
  Calculate atomic Hamiltonians:            36.226    36.226   2.2% ||
  Communicate:                               9.290     9.290   0.6% |
  Poisson:                                   0.258     0.258   0.0% |
  XC 3D grid:                              327.835    73.100   4.4% |-|
   VdW-DF integral:                        254.734    11.524   0.7% |
    Convolution:                            27.924    27.924   1.7% ||
    FFT:                                     9.408     9.408   0.6% |
    gather:                                 73.506    73.506   4.4% |-|
    hmm1:                                    8.356     8.356   0.5% |
    hmm2:                                   16.517    16.517   1.0% |
    iFFT:                                    8.791     8.791   0.5% |
    potential:                              98.708     1.561   0.1% |
     collect:                                7.723     7.723   0.5% |
     p1:                                    49.061    49.061   3.0% ||
     p2:                                    26.213    26.213   1.6% ||
     sum:                                   14.150    14.150   0.9% |
    splines:                                 0.000     0.000   0.0% |
 Orthonormalize:                             4.249     0.001   0.0% |
  calc_s_matrix:                             0.675     0.675   0.0% |
  inverse-cholesky:                          0.148     0.148   0.0% |
  projections:                               2.284     2.284   0.1% |
  rotate_psi_s:                              1.140     1.140   0.1% |
Set symmetry:                                0.001     0.001   0.0% |
Other:                                       9.888     9.888   0.6% |
-------------------------------------------------------------------
Total:                                              1662.055 100.0%

Memory usage: 2.58 GiB
Date: Wed Apr 23 02:43:21 2025
