
  ___ ___ ___ _ _ _  
 |   |   |_  | | | | 
 | | | | | . | | | | 
 |__ |  _|___|_____|  25.1.1b1
 |___|_|             

User:   dmapa@x108.nifl.fysik.dtu.dk
Date:   Mon Apr 21 18:07:43 2025
Arch:   x86_64
Pid:    418181
CWD:    /home/cat/dmapa/gpaw/dissads/tree/systems/BEEF-Co/compute/relax
Python: 3.11.3
gpaw:   /home/cat/dmapa/bin/venv-asrlib/gpaw/gpaw (55eb60cdf0)
_gpaw:  /home/cat/dmapa/bin/venv-asrlib/gpaw/build/lib.linux-x86_64-broadwell_el8-cpython-311/
        _gpaw.cpython-311-x86_64-linux-gnu.so (55eb60cdf0)
ase:    /home/cat/dmapa/bin/venv-asrlib/ase/ase (version 3.26.0b1-f4168b42a5)
numpy:  /home/modules/software/SciPy-bundle/2023.07-gfbf-2023a/lib/python3.11/site-packages/numpy (version 1.25.1)
scipy:  /home/modules/software/SciPy-bundle/2023.07-gfbf-2023a/lib/python3.11/site-packages/scipy (version 1.11.1)
libxc:  6.2.2
units:  Angstrom and eV
cores: 24
OpenMP: False
OMP_NUM_THREADS: 1

Input parameters:
  kpts: {size: [8, 8, 8]}
  mixer: {backend: pulay,
          beta: 0.02,
          method: fullspin,
          nmaxold: 5,
          weight: 50.0}
  mode: {ecut: 500,
         name: pw}
  spinpol: True
  xc: BEEF-vdW

System changes: positions, numbers, cell, pbc, initial_charges, initial_magmoms 

Initialize ...

species:
  Co:
    name: Cobalt
    id: 339d20d5b0b93d2de9531a1bee871d91
    Z: 27.0
    valence: 9
    core: 18
    charge: 0.0
    file: /home/modules/software/GPAW-setups/24.11.0/Co.PBE.gz
    compensation charges: {type: gauss,
                           rc: 0.32,
                           lmax: 2}
    cutoffs: {filter: 1.87,
              core: 2.55}
    projectors:
      #              energy  rcut
      - 4s(2.00)    -5.469   1.005
      - 4p(0.00)    -1.277   1.058
      - 3d(7.00)    -8.205   1.005
      -  s          21.742   1.005
      -  p          25.934   1.058
      -  d          19.007   1.005
  
    # Using partial waves for Co as LCAO basis

Reference energy: -75805.419811  # eV

Spin-polarized calculation.
Magnetic moment: 2.400000

Convergence criteria:
 Maximum [total energy] change in last 3 cyles: 0.0005 eV / valence electron
 Maximum integral of absolute [dens]ity change: 0.0001 electrons / valence electron
 Maximum integral of absolute [eigenst]ate change: 4e-08 eV^2 / valence electron
 Maximum number of scf [iter]ations: 333
 (Square brackets indicate name in SCF output, whereas a 'c' in
 the SCF output indicates the quantity has converged.)

Symmetries present (total): 12

  ( 1  1  0)  ( 1  1  0)  ( 1  0  0)  ( 1  0  0)  ( 0  1  0)  ( 0  1  0)
  ( 0 -1  0)  ( 0 -1  0)  ( 0  1  0)  ( 0  1  0)  (-1 -1  0)  (-1 -1  0)
  ( 0  0  1)  ( 0  0 -1)  ( 0  0  1)  ( 0  0 -1)  ( 0  0  1)  ( 0  0 -1)

  ( 0 -1  0)  ( 0 -1  0)  (-1  0  0)  (-1  0  0)  (-1 -1  0)  (-1 -1  0)
  (-1  0  0)  (-1  0  0)  ( 1  1  0)  ( 1  1  0)  ( 1  0  0)  ( 1  0  0)
  ( 0  0  1)  ( 0  0 -1)  ( 0  0  1)  ( 0  0 -1)  ( 0  0  1)  ( 0  0 -1)
Note: your k-points are not as symmetric as your crystal!

512 k-points: 8 x 8 x 8 Monkhorst-Pack grid
80 k-points in the irreducible part of the Brillouin zone
       k-points in crystal coordinates                weights
   0:     0.06250000   -0.06250000    0.06250000          4/512
   1:     0.06250000   -0.06250000    0.18750000          4/512
   2:     0.06250000   -0.06250000    0.31250000          4/512
   3:     0.06250000   -0.06250000    0.43750000          4/512
   4:     0.06250000    0.06250000    0.06250000          4/512
   5:     0.06250000    0.06250000    0.18750000          4/512
   6:     0.06250000    0.06250000    0.31250000          4/512
   7:     0.06250000    0.06250000    0.43750000          4/512
   8:     0.18750000   -0.18750000    0.06250000          4/512
   9:     0.18750000   -0.18750000    0.18750000          4/512
          ...
  79:     0.43750000    0.43750000    0.43750000          4/512

Wave functions: Plane wave expansion
  Cutoff energy: 500.000 eV
  Number of coefficients (min, max): 464, 487
  Pulay-stress correction: 0.000000 eV/Ang^3 (de/decut=0.000000)
  Using FFTW library
  ScaLapack parameters: grid=1x1, blocksize=None
  Wavefunction extrapolation:
    Improved wavefunction reuse through dual PAW basis 

Occupation numbers: Fermi-Dirac:
  width: 0.1000  # eV
 

Eigensolver
   Davidson(niter=2) 

Densities:
  Coarse grid: 14*14*20 grid
  Fine grid: 28*28*40 grid
  Total Charge: 0.000000 

Density mixing:
  Method: fullspin
  Backend: pulay
  Linear mixing parameter: 0.02
  old densities: 5
  Damping of long wavelength oscillations: 50 

Hamiltonian:
  XC and Coulomb potentials evaluated on a 28*28*40 grid
  Using the BEEF-vdW Exchange-Correlation functional
  External potential:
    NoExternalPotential
 

XC parameters: BEEF-vdW with 2 nearest neighbor stencil

Memory estimate:
  Process memory now: 292.35 MiB
  Calculator: 2.29 MiB
    Density: 0.64 MiB
      Arrays: 0.37 MiB
      Localized functions: 0.17 MiB
      Mixer: 0.10 MiB
    Hamiltonian: 0.28 MiB
      Arrays: 0.27 MiB
      XC: 0.00 MiB
      Poisson: 0.00 MiB
      vbar: 0.00 MiB
    Wavefunctions: 1.38 MiB
      Arrays psit_nG: 0.85 MiB
      Eigensolver: 0.10 MiB
      Projections: 0.06 MiB
      Projectors: 0.19 MiB
      PW-descriptor: 0.19 MiB

Total number of cores used: 24
Parallelization over k-points: 8
Domain decomposition: 1 x 1 x 3

Number of atoms: 2
Number of atomic orbitals: 18
Number of bands in calculation: 17
Number of valence electrons: 18
Bands to converge: occupied

... initialized

Initializing position-dependent things.

Density initialized from atomic densities
Creating initial wave functions:
  17 bands from LCAO basis set

                 
                 
                 
        Co       
                 
                 
                 
       Co        
                 
                 
                 

Positions:
   0 Co     0.000000    0.000000    0.000000    ( 0.0000,  0.0000,  1.2000)
   1 Co     0.000000    1.366057    1.918591    ( 0.0000,  0.0000,  1.2000)

Unit cell:
           periodic     x           y           z      points  spacing
  1. axis:    yes    2.366080    0.000000    0.000000    14     0.1464
  2. axis:    yes   -1.183040    2.049085    0.000000    14     0.1464
  3. axis:    yes    0.000000    0.000000    3.837182    20     0.1919

  Lengths:   2.366080   2.366080   3.837182
  Angles:   90.000000  90.000000 120.000000

Effective grid spacing dv^(1/3) = 0.1681

     iter     time        total  log10-change:  magmom
                         energy   eigst   dens
iter:   1 18:07:48  -144.949362                   +2.4038
iter:   2 18:07:49  -144.979222   -1.17  -1.59    +2.4037
iter:   3 18:07:49  -144.981450   -2.01  -1.59    +2.4036
iter:   4 18:07:50  -145.019938   -1.97  -1.56    +2.4107
iter:   5 18:07:50  -145.030568   -2.88  -2.19    +2.4196
iter:   6 18:07:51  -145.049891   -3.11  -2.22    +2.5247
iter:   7 18:07:51  -145.051515   -3.93  -2.29    +2.5898
iter:   8 18:07:51  -145.062795   -3.79  -2.36    +2.6775
iter:   9 18:07:52  -145.084222   -2.76  -2.45    +2.9636
iter:  10 18:07:52  -145.081357   -4.57  -2.86    +2.8808
iter:  11 18:07:53  -145.081607c  -5.97  -2.92    +2.8863
iter:  12 18:07:53  -145.082136c  -5.77  -2.94    +2.9001
iter:  13 18:07:54  -145.084282c  -4.01  -2.99    +2.9875
iter:  14 18:07:54  -145.083944c  -5.49  -3.38    +2.9665
iter:  15 18:07:55  -145.083943c  -6.88  -3.62    +2.9667
iter:  16 18:07:55  -145.083987c  -6.28  -3.64    +2.9688
iter:  17 18:07:56  -145.084025c  -6.79  -3.82    +2.9709
iter:  18 18:07:56  -145.084058c  -6.89  -3.88    +2.9732
iter:  19 18:07:56  -145.084043c  -7.65c -4.02c   +2.9723

Converged after 19 iterations.

Dipole moment: (-2.113681, 1.220334, -0.000000) |e|*Ang

Total magnetic moment: (0.000000, 0.000000, 2.972333)
Local magnetic moments:
   0 Co ( 0.000000,  0.000000,  1.565067)
   1 Co ( 0.000000,  0.000000,  1.565141)

Energy contributions relative to reference atoms: (reference = -75805.419811)

Kinetic:        +70.364783
Potential:      -59.772971
External:        +0.000000
XC:            -155.874117
Entropy (-ST):   -0.051702
Local:           +0.224113
SIC:             +0.000000
--------------------------
Free energy:   -145.109894
Extrapolated:  -145.084043

Spin contamination: 0.157628 electrons
Showing only first 2 kpts
                      Up                     Down
 Kpt  Band  Eigenvalues  Occupancy  Eigenvalues  Occupancy
  0     7     10.66212    1.00000     11.96060    0.99956
  0     8     10.69967    1.00000     12.42219    0.95784
  0     9     11.27082    1.00000     12.43663    0.95160
  0    10     12.10075    0.99823     13.96859    0.00000

  1     7     10.81682    1.00000     11.86381    0.99983
  1     8     10.92741    1.00000     12.67132    0.65290
  1     9     11.00377    1.00000     12.68304    0.62589
  1    10     12.06805    0.99873     13.93609    0.00001


Fermi level: 12.73450

No gap
No difference between direct/indirect transitions
Timing:                              incl.     excl.
-----------------------------------------------------------
Hamiltonian:                         3.966     0.000   0.0% |
 Atomic:                             0.175     0.175   1.3% ||
  XC Correction:                     0.000     0.000   0.0% |
 Calculate atomic Hamiltonians:      0.001     0.001   0.0% |
 Communicate:                        0.001     0.001   0.0% |
 Initialize Hamiltonian:             0.000     0.000   0.0% |
 Poisson:                            0.000     0.000   0.0% |
 XC 3D grid:                         3.790     0.033   0.2% |
  VdW-DF integral:                   3.757     0.001   0.0% |
   Convolution:                      0.001     0.001   0.0% |
   FFT:                              0.001     0.001   0.0% |
   gather:                           0.311     0.311   2.3% ||
   hmm1:                             0.001     0.001   0.0% |
   hmm2:                             0.001     0.001   0.0% |
   iFFT:                             0.001     0.001   0.0% |
   potential:                        0.028     0.000   0.0% |
    collect:                         0.001     0.001   0.0% |
    p1:                              0.006     0.006   0.0% |
    p2:                              0.002     0.002   0.0% |
    sum:                             0.019     0.019   0.1% |
   splines:                          3.413     3.413  25.0% |---------|
LCAO initialization:                 0.819     0.049   0.4% |
 LCAO eigensolver:                   0.450     0.001   0.0% |
  Calculate projections:             0.000     0.000   0.0% |
  DenseAtomicCorrection:             0.001     0.001   0.0% |
  Distribute overlap matrix:         0.004     0.004   0.0% |
  Orbital Layouts:                   0.004     0.004   0.0% |
  Potential matrix:                  0.434     0.434   3.2% ||
  Sum over cells:                    0.006     0.006   0.0% |
 LCAO to grid:                       0.196     0.196   1.4% ||
 Set positions (LCAO WFS):           0.124     0.017   0.1% |
  Basic WFS set positions:           0.001     0.001   0.0% |
  Basis functions set positions:     0.000     0.000   0.0% |
  P tci:                             0.024     0.024   0.2% |
  ST tci:                            0.057     0.057   0.4% |
  mktci:                             0.026     0.026   0.2% |
PWDescriptor:                        0.002     0.002   0.0% |
SCF-cycle:                           8.463     0.410   3.0% ||
 Davidson:                           3.428     0.955   7.0% |--|
  Apply H:                           0.379     0.351   2.6% ||
   HMM T:                            0.028     0.028   0.2% |
  Subspace diag:                     0.577     0.023   0.2% |
   calc_h_matrix:                    0.441     0.061   0.4% |
    Apply H:                         0.380     0.351   2.6% ||
     HMM T:                          0.028     0.028   0.2% |
   diagonalize:                      0.077     0.077   0.6% |
   rotate_psi:                       0.037     0.037   0.3% |
  calc. matrices:                    1.140     0.394   2.9% ||
   Apply H:                          0.746     0.691   5.1% |-|
    HMM T:                           0.055     0.055   0.4% |
  diagonalize:                       0.315     0.315   2.3% ||
  rotate_psi:                        0.063     0.063   0.5% |
 Density:                            0.387     0.000   0.0% |
  Atomic density matrices:           0.025     0.025   0.2% |
  Mix:                               0.047     0.047   0.3% |
  Multipole moments:                 0.002     0.002   0.0% |
  Pseudo density:                    0.313     0.188   1.4% ||
   Symmetrize density:               0.125     0.125   0.9% |
 Hamiltonian:                        4.228     0.006   0.0% |
  Atomic:                            3.138     3.138  22.9% |--------|
   XC Correction:                    0.000     0.000   0.0% |
  Calculate atomic Hamiltonians:     0.010     0.010   0.1% |
  Communicate:                       0.014     0.014   0.1% |
  Poisson:                           0.002     0.002   0.0% |
  XC 3D grid:                        1.059     0.595   4.4% |-|
   VdW-DF integral:                  0.464     0.012   0.1% |
    Convolution:                     0.023     0.023   0.2% |
    FFT:                             0.010     0.010   0.1% |
    gather:                          0.186     0.186   1.4% ||
    hmm1:                            0.016     0.016   0.1% |
    hmm2:                            0.018     0.018   0.1% |
    iFFT:                            0.013     0.013   0.1% |
    potential:                       0.186     0.003   0.0% |
     collect:                        0.020     0.020   0.1% |
     p1:                             0.108     0.108   0.8% |
     p2:                             0.031     0.031   0.2% |
     sum:                            0.024     0.024   0.2% |
    splines:                         0.000     0.000   0.0% |
 Orthonormalize:                     0.010     0.001   0.0% |
  calc_s_matrix:                     0.002     0.002   0.0% |
  inverse-cholesky:                  0.002     0.002   0.0% |
  projections:                       0.004     0.004   0.0% |
  rotate_psi_s:                      0.001     0.001   0.0% |
Set symmetry:                        0.026     0.026   0.2% |
Other:                               0.401     0.401   2.9% ||
-----------------------------------------------------------
Total:                                        13.678 100.0%

Memory usage: 292.38 MiB
Date: Mon Apr 21 18:07:57 2025
