
  ___ ___ ___ _ _ _  
 |   |   |_  | | | | 
 | | | | | . | | | | 
 |__ |  _|___|_____|  25.1.1b1
 |___|_|             

User:   dmapa@x025.nifl.fysik.dtu.dk
Date:   Fri Apr 25 12:39:14 2025
Arch:   x86_64
Pid:    360726
CWD:    /home/cat/dmapa/gpaw/dissads/tree/surfaces/BEEF-Ru/min_surf/relax
Python: 3.11.3
gpaw:   /home/cat/dmapa/bin/venv-asrlib/gpaw/gpaw (55eb60cdf0)
_gpaw:  /home/cat/dmapa/bin/venv-asrlib/gpaw/build/lib.linux-x86_64-broadwell_el8-cpython-311/
        _gpaw.cpython-311-x86_64-linux-gnu.so (55eb60cdf0)
ase:    /home/cat/dmapa/bin/venv-asrlib/ase/ase (version 3.26.0b1-f4168b42a5)
numpy:  /home/modules/software/SciPy-bundle/2023.07-gfbf-2023a/lib/python3.11/site-packages/numpy (version 1.25.1)
scipy:  /home/modules/software/SciPy-bundle/2023.07-gfbf-2023a/lib/python3.11/site-packages/scipy (version 1.11.1)
libxc:  6.2.2
units:  Angstrom and eV
cores: 24
OpenMP: False
OMP_NUM_THREADS: 1

Input parameters:
  kpts: {size: [4, 3, 1]}
  mixer: {backend: pulay,
          beta: 0.02,
          method: separate,
          nmaxold: 5,
          weight: 50.0}
  mode: {ecut: 500,
         name: pw}
  spinpol: False
  symmetry: off
  xc: BEEF-vdW

System changes: positions, numbers, cell, pbc, initial_charges, initial_magmoms 

Initialize ...

species:
  Ru:
    name: Ruthenium
    id: 670232e5f51aeb2542f664849653fb2d
    Z: 44.0
    valence: 16
    core: 28
    charge: 0.0
    file: /home/modules/software/GPAW-setups/24.11.0/Ru.PBE.gz
    compensation charges: {type: gauss,
                           rc: 0.39,
                           lmax: 2}
    cutoffs: {filter: 2.16,
              core: 1.30}
    projectors:
      #              energy  rcut
      - 4s(2.00)   -76.316   1.281
      - 5s(1.00)    -4.236   1.281
      - 4p(6.00)   -46.423   1.286
      - 5p(0.00)    -0.913   1.286
      - 4d(7.00)    -5.203   1.254
      -  d          22.008   1.254
  
    # Using partial waves for Ru as LCAO basis

Reference energy: -4436824.499384  # eV

Spin-paired calculation

Convergence criteria:
 Maximum [total energy] change in last 3 cyles: 0.0005 eV / valence electron
 Maximum integral of absolute [dens]ity change: 0.0001 electrons / valence electron
 Maximum integral of absolute [eigenst]ate change: 4e-08 eV^2 / valence electron
 Maximum number of scf [iter]ations: 333
 (Square brackets indicate name in SCF output, whereas a 'c' in
 the SCF output indicates the quantity has converged.)

Symmetries present (total): 1

  ( 1  0  0)
  ( 0  1  0)
  ( 0  0  1)

12 k-points: 4 x 3 x 1 Monkhorst-Pack grid
12 k-points in the irreducible part of the Brillouin zone
       k-points in crystal coordinates                weights
   0:    -0.37500000   -0.33333333    0.00000000          1/12
   1:    -0.37500000    0.00000000    0.00000000          1/12
   2:    -0.37500000    0.33333333    0.00000000          1/12
   3:    -0.12500000   -0.33333333    0.00000000          1/12
   4:    -0.12500000    0.00000000    0.00000000          1/12
   5:    -0.12500000    0.33333333    0.00000000          1/12
   6:     0.12500000   -0.33333333    0.00000000          1/12
   7:     0.12500000    0.00000000    0.00000000          1/12
   8:     0.12500000    0.33333333    0.00000000          1/12
   9:     0.37500000   -0.33333333    0.00000000          1/12
          ...
  11:     0.37500000    0.33333333    0.00000000          1/12

Wave functions: Plane wave expansion
  Cutoff energy: 500.000 eV
  Number of coefficients (min, max): 59012, 59104
  Pulay-stress correction: 0.000000 eV/Ang^3 (de/decut=0.000000)
  Using FFTW library
  ScaLapack parameters: grid=1x1, blocksize=None
  Wavefunction extrapolation:
    Improved wavefunction reuse through dual PAW basis 

Occupation numbers: Fermi-Dirac:
  width: 0.1000  # eV
 

Eigensolver
   Davidson(niter=2) 

Densities:
  Coarse grid: 45*49*160 grid
  Fine grid: 90*98*320 grid
  Total Charge: 0.000000 

Density mixing:
  Method: separate
  Backend: pulay
  Linear mixing parameter: 0.02
  old densities: 5
  Damping of long wavelength oscillations: 50 

Hamiltonian:
  XC and Coulomb potentials evaluated on a 90*98*320 grid
  Using the BEEF-vdW Exchange-Correlation functional
  External potential:
    NoExternalPotential
 

XC parameters: BEEF-vdW with 2 nearest neighbor stencil

Memory estimate:
  Process memory now: 1117.44 MiB
  Calculator: 458.92 MiB
    Density: 79.67 MiB
      Arrays: 34.99 MiB
      Localized functions: 31.22 MiB
      Mixer: 13.46 MiB
    Hamiltonian: 23.52 MiB
      Arrays: 22.88 MiB
      XC: 0.00 MiB
      Poisson: 0.00 MiB
      vbar: 0.64 MiB
    Wavefunctions: 355.74 MiB
      Arrays psit_nG: 157.82 MiB
      Eigensolver: 178.78 MiB
      Projections: 1.73 MiB
      Projectors: 3.38 MiB
      PW-descriptor: 14.02 MiB

Total number of cores used: 24
Parallelization over k-points: 12
Domain decomposition: 1 x 1 x 2

Number of atoms: 36
Number of atomic orbitals: 468
Number of bands in calculation: 350
Number of valence electrons: 576
Bands to converge: occupied

... initialized

Initializing position-dependent things.

Density initialized from atomic densities
Creating initial wave functions:
  350 bands from LCAO basis set

       .-------------------.  
      /|                   |  
     / |                   |  
    /  |                   |  
   /   |                   |  
  /    |                   |  
 *     |                   |  
 |     |                   |  
 |     |                   |  
 |     |                   |  
 |     |                   |  
 |     |                   |  
 |     |                   |  
 |     |                   |  
 |     |                   |  
 |     |                   |  
 |     |                   |  
 |     | Ru     Ru    Ru   |  
 |     |                   |  
 |  Ru |  RRu   RRu    Ru  |  
 |    Ru     Ru    Ru      |  
 |   Ru|    Ru    Ru       |  
 Ru    RRu   RRu    Ru     |  
 |     | Ru    Ru     Ru   |  
 |RuRu | RuRu  RuRu        |  
 |     |                   |  
 |    Ru    Ru     Ru      |  
 Ru    |Ru    Ru           |  
 |     |                   |  
 |     |                   |  
 |     |                   |  
 |     |                   |  
 |     |                   |  
 |     |                   |  
 |     |                   |  
 |     |                   |  
 |     |                   |  
 |     .-------------------.  
 |    /                   /   
 |   /                   /    
 |  /                   /     
 | /                   /      
 |/                   /       
 *-------------------*        

Positions:
   0 Ru     0.000000    0.000000   12.844257    ( 0.0000,  0.0000,  0.0000)
   1 Ru     2.731233    0.000000   12.844257    ( 0.0000,  0.0000,  0.0000)
   2 Ru     5.462466    0.000000   12.844257    ( 0.0000,  0.0000,  0.0000)
   3 Ru     1.365617    2.365317   12.844257    ( 0.0000,  0.0000,  0.0000)
   4 Ru     4.096850    2.365317   12.844257    ( 0.0000,  0.0000,  0.0000)
   5 Ru     6.828083    2.365317   12.844257    ( 0.0000,  0.0000,  0.0000)
   6 Ru     0.000000    4.730635   12.844257    ( 0.0000,  0.0000,  0.0000)
   7 Ru     2.731233    4.730635   12.844257    ( 0.0000,  0.0000,  0.0000)
   8 Ru     5.462466    4.730635   12.844257    ( 0.0000,  0.0000,  0.0000)
   9 Ru     1.365617    7.095952   12.844257    ( 0.0000,  0.0000,  0.0000)
  10 Ru     4.096850    7.095952   12.844257    ( 0.0000,  0.0000,  0.0000)
  11 Ru     6.828083    7.095952   12.844257    ( 0.0000,  0.0000,  0.0000)
  12 Ru     0.000000    1.576878   15.000000    ( 0.0000,  0.0000,  0.0000)
  13 Ru     2.731233    1.576878   15.000000    ( 0.0000,  0.0000,  0.0000)
  14 Ru     5.462466    1.576878   15.000000    ( 0.0000,  0.0000,  0.0000)
  15 Ru     1.365617    3.942195   15.000000    ( 0.0000,  0.0000,  0.0000)
  16 Ru     4.096850    3.942195   15.000000    ( 0.0000,  0.0000,  0.0000)
  17 Ru     6.828083    3.942195   15.000000    ( 0.0000,  0.0000,  0.0000)
  18 Ru     0.000000    6.307513   15.000000    ( 0.0000,  0.0000,  0.0000)
  19 Ru     2.731233    6.307513   15.000000    ( 0.0000,  0.0000,  0.0000)
  20 Ru     5.462466    6.307513   15.000000    ( 0.0000,  0.0000,  0.0000)
  21 Ru     1.365617    8.672830   15.000000    ( 0.0000,  0.0000,  0.0000)
  22 Ru     4.096850    8.672830   15.000000    ( 0.0000,  0.0000,  0.0000)
  23 Ru     6.828083    8.672830   15.000000    ( 0.0000,  0.0000,  0.0000)
  24 Ru     0.000000    0.000060   17.146049    ( 0.0000,  0.0000,  0.0000)
  25 Ru     2.731233    0.000060   17.146049    ( 0.0000,  0.0000,  0.0000)
  26 Ru     5.462466    0.000060   17.146049    ( 0.0000,  0.0000,  0.0000)
  27 Ru     1.365617    2.365377   17.146053    ( 0.0000,  0.0000,  0.0000)
  28 Ru     4.096850    2.365377   17.146053    ( 0.0000,  0.0000,  0.0000)
  29 Ru     6.828083    2.365377   17.146053    ( 0.0000,  0.0000,  0.0000)
  30 Ru     0.000000    4.730696   17.146049    ( 0.0000,  0.0000,  0.0000)
  31 Ru     2.731233    4.730696   17.146049    ( 0.0000,  0.0000,  0.0000)
  32 Ru     5.462466    4.730696   17.146049    ( 0.0000,  0.0000,  0.0000)
  33 Ru     1.365617    7.096015   17.146058    ( 0.0000,  0.0000,  0.0000)
  34 Ru     4.096850    7.096015   17.146058    ( 0.0000,  0.0000,  0.0000)
  35 Ru     6.828083    7.096015   17.146058    ( 0.0000,  0.0000,  0.0000)

Unit cell:
           periodic     x           y           z      points  spacing
  1. axis:    yes    8.193699    0.000000    0.000000    45     0.1821
  2. axis:    yes    0.000000    9.461269    0.000000    49     0.1931
  3. axis:    no     0.000000    0.000000   30.000000   160     0.1875

  Lengths:   8.193699   9.461269  30.000000
  Angles:   90.000000  90.000000  90.000000

Effective grid spacing dv^(1/3) = 0.1875

     iter     time        total  log10-change:
                         energy   eigst   dens
iter:   1 12:41:09 -5050.197843
iter:   2 12:41:56 -5049.262939   -1.24  -1.36
iter:   3 12:42:43 -5051.428778   -0.24  -1.36
iter:   4 12:43:30 -5035.168208   -1.11  -1.42
iter:   5 12:44:17 -5034.960433   -2.04  -1.85
iter:   6 12:45:04 -5036.207610   -2.10  -1.89
iter:   7 12:45:51 -5037.482186   -2.21  -1.87
iter:   8 12:46:38 -5034.748383   -1.38  -1.83
iter:   9 12:47:25 -5034.750994   -3.05  -2.17
iter:  10 12:48:12 -5035.265616   -2.09  -2.25
iter:  11 12:48:59 -5034.616586   -1.72  -2.11
iter:  12 12:49:46 -5034.447916   -3.06  -2.52
iter:  13 12:50:33 -5034.487524c  -3.47  -2.92
iter:  14 12:51:20 -5034.441383c  -3.12  -2.74
iter:  15 12:52:07 -5034.441296c  -3.90  -2.97
iter:  16 12:52:55 -5034.438318c  -4.07  -3.19
iter:  17 12:53:41 -5034.438570c  -4.46  -3.24
iter:  18 12:54:29 -5034.438830c  -5.03  -3.50
iter:  19 12:55:16 -5034.438340c  -5.42  -3.51
iter:  20 12:56:03 -5034.437268c  -5.36  -3.57
iter:  21 12:56:50 -5034.437398c  -5.74  -3.75
iter:  22 12:57:37 -5034.437009c  -6.01  -3.87
iter:  23 12:58:24 -5034.436805c  -6.28  -3.95
iter:  24 12:59:11 -5034.436687c  -5.94  -3.98
iter:  25 12:59:58 -5034.436409c  -6.27  -4.06c
iter:  26 13:00:45 -5034.436409c  -7.26  -4.16c
iter:  27 13:01:32 -5034.436396c  -7.52c -4.19c

Converged after 27 iterations.

Dipole moment: (0.000000, 21.132746, 0.005485) |e|*Ang

Energy contributions relative to reference atoms: (reference = -4436824.499384)

Kinetic:       +538.085154
Potential:     -633.052536
External:        +0.000000
XC:            -4930.240976
Entropy (-ST):   -1.443630
Local:           -8.506223
SIC:             +0.000000
--------------------------
Free energy:   -5035.158211
Extrapolated:  -5034.436396

Showing only first 2 kpts
 Kpt  Band  Eigenvalues  Occupancy
  0   286     -1.47728    1.76564
  0   287     -1.43311    1.65774
  0   288     -1.34553    1.33721
  0   289     -1.26694    0.95800

  1   286     -1.18120    0.56120
  1  
Forces in eV/Ang:
  0 Ru    0.00000    0.00421    0.67859
  1 Ru    0.00000    0.00421    0.67859
  2 Ru   -0.00000    0.00421    0.67859
  3 Ru    0.00000    0.00415    0.67826
  4 Ru    0.00000    0.00415    0.67826
  5 Ru   -0.00000    0.00415    0.67826
  6 Ru    0.00000    0.00427    0.67857
  7 Ru    0.00000    0.00427    0.67857
  8 Ru   -0.00000    0.00427    0.67857
  9 Ru   -0.00000    0.00442    0.67792
 10 Ru    0.00000    0.00442    0.67792
 11 Ru    0.00000    0.00442    0.67792
 12 Ru    0.00000   -0.00832    0.00000
 13 Ru    0.00000   -0.00832    0.00000
 14 Ru   -0.00000   -0.00832    0.00000
 15 Ru   -0.00000   -0.00889    0.00000
 16 Ru    0.00000   -0.00889    0.00000
 17 Ru    0.00000   -0.00889    0.00000
 18 Ru    0.00000   -0.00825    0.00000
 19 Ru   -0.00000   -0.00825    0.00000
 20 Ru    0.00000   -0.00825    0.00000
 21 Ru    0.00000   -0.00856    0.00000
 22 Ru    0.00000   -0.00856    0.00000
 23 Ru   -0.00000   -0.00856    0.00000
 24 Ru    0.00000    0.00421   -0.67859
 25 Ru    0.00000    0.00421   -0.67859
 26 Ru   -0.00000    0.00421   -0.67859
 27 Ru    0.00000    0.00415   -0.67826
 28 Ru    0.00000    0.00415   -0.67826
 29 Ru   -0.00000    0.00415   -0.67826
 30 Ru    0.00000    0.00427   -0.67857
 31 Ru    0.00000    0.00427   -0.67857
 32 Ru   -0.00000    0.00427   -0.67857
 33 Ru   -0.00000    0.00442   -0.67792
 34 Ru    0.00000    0.00442   -0.67792
 35 Ru    0.00000    0.00442   -0.67792

System changes: positions 

Initializing position-dependent things.

Timing:                              incl.     excl.
-----------------------------------------------------------
Forces:                              5.045     5.045   0.1% |
Hamiltonian:                         8.556     0.012   0.0% |
 Atomic:                             0.106     0.001   0.0% |
  XC Correction:                     0.105     0.105   0.0% |
 Calculate atomic Hamiltonians:      0.447     0.447   0.0% |
 Communicate:                        0.110     0.110   0.0% |
 Initialize Hamiltonian:             0.001     0.001   0.0% |
 Poisson:                            0.004     0.004   0.0% |
 XC 3D grid:                         7.876     0.920   0.0% |
  VdW-DF integral:                   6.956     0.136   0.0% |
   Convolution:                      0.332     0.332   0.0% |
   FFT:                              0.109     0.109   0.0% |
   gather:                           0.951     0.951   0.0% |
   hmm1:                             0.121     0.121   0.0% |
   hmm2:                             0.198     0.198   0.0% |
   iFFT:                             0.111     0.111   0.0% |
   potential:                        1.171     0.019   0.0% |
    collect:                         0.088     0.088   0.0% |
    p1:                              0.575     0.575   0.0% |
    p2:                              0.300     0.300   0.0% |
    sum:                             0.188     0.188   0.0% |
   splines:                          3.827     3.827   0.1% |
LCAO initialization:                36.740     0.090   0.0% |
 LCAO eigensolver:                   5.191     0.001   0.0% |
  Calculate projections:             0.000     0.000   0.0% |
  DenseAtomicCorrection:             0.000     0.000   0.0% |
  Distribute overlap matrix:         4.958     4.958   0.1% |
  Orbital Layouts:                   0.229     0.229   0.0% |
  Potential matrix:                  0.000     0.000   0.0% |
  Sum over cells:                    0.002     0.002   0.0% |
 LCAO to grid:                      30.727    30.727   0.6% |
 Set positions (LCAO WFS):           0.732     0.631   0.0% |
  Basic WFS set positions:           0.004     0.004   0.0% |
  Basis functions set positions:     0.000     0.000   0.0% |
  P tci:                             0.001     0.001   0.0% |
  ST tci:                            0.075     0.075   0.0% |
  mktci:                             0.021     0.021   0.0% |
PWDescriptor:                        0.749     0.749   0.0% |
Redistribute:                        0.000     0.000   0.0% |
SCF-cycle:                         595.767     0.041   0.0% |
 Davidson:                         415.514    81.014   1.6% ||
  Apply H:                          39.107    38.281   0.8% |
   HMM T:                            0.826     0.826   0.0% |
  Subspace diag:                    71.607     0.004   0.0% |
   calc_h_matrix:                   50.440    11.612   0.2% |
    Apply H:                        38.828    37.989   0.8% |
     HMM T:                          0.839     0.839   0.0% |
   diagonalize:                      2.518     2.518   0.1% |
   rotate_psi:                      18.645    18.645   0.4% |
  calc. matrices:                  151.727    75.326   1.5% ||
   Apply H:                         76.401    74.761   1.5% ||
    HMM T:                           1.639     1.639   0.0% |
  diagonalize:                      36.740    36.740   0.7% |
  rotate_psi:                       35.320    35.320   0.7% |
 Density:                           40.950     0.001   0.0% |
  Atomic density matrices:           0.196     0.196   0.0% |
  Mix:                              17.599    17.599   0.4% |
  Multipole moments:                 0.016     0.016   0.0% |
  Pseudo density:                   23.138    20.177   0.4% |
   Symmetrize density:               2.961     2.961   0.1% |
 Hamiltonian:                      138.153     0.267   0.0% |
  Atomic:                            3.148     0.019   0.0% |
   XC Correction:                    3.129     3.129   0.1% |
  Calculate atomic Hamiltonians:    13.099    13.099   0.3% |
  Communicate:                       3.334     3.334   0.1% |
  Poisson:                           0.101     0.101   0.0% |
  XC 3D grid:                      118.205    26.897   0.5% |
   VdW-DF integral:                 91.308     3.764   0.1% |
    Convolution:                    10.104    10.104   0.2% |
    FFT:                             3.766     3.766   0.1% |
    gather:                         26.320    26.320   0.5% |
    hmm1:                            3.183     3.183   0.1% |
    hmm2:                            5.670     5.670   0.1% |
    iFFT:                            3.323     3.323   0.1% |
    potential:                      35.179     0.606   0.0% |
     collect:                        2.618     2.618   0.1% |
     p1:                            17.735    17.735   0.4% |
     p2:                             9.431     9.431   0.2% |
     sum:                            4.790     4.790   0.1% |
    splines:                         0.000     0.000   0.0% |
 Orthonormalize:                     1.108     0.000   0.0% |
  calc_s_matrix:                     0.180     0.180   0.0% |
  inverse-cholesky:                  0.048     0.048   0.0% |
  projections:                       0.579     0.579   0.0% |
  rotate_psi_s:                      0.301     0.301   0.0% |
Set symmetry:                        0.003     0.003   0.0% |
Other:                            4350.969  4350.969  87.1% |----------------------------------|
-----------------------------------------------------------
Total:                                      4997.828 100.0%

Memory usage: 2.26 GiB
Date: Fri Apr 25 13:51:38 2025
99384)

Kinetic:       +541.081819
Potential:     -635.219686
External:        +0.000000
XC:            -4931.080995
Entropy (-ST):   -1.436549
Local:           -8.560708
SIC:             +0.000000
--------------------------
Free energy:   -5035.216118
Extrapolated:  -5034.497844

Showing only first 2 kpts
 Kpt  Band  Eigenvalues  Occupancy
  0   286     -1.47412    1.77283
  0   287     -1.42857    1.66379
  0   288     -1.33946    1.33996
  0   289     -1.25669    0.94023

  1   286     -1.17742    0.57306
  1   287     -1.17742    0.57302
  1   288     -1.17474    0.56214
  1   289     -1.16575    0.52654


Fermi level: -1.26865

No gap
No difference between direct/indirect transitions

Forces in eV/Ang:
  0 Ru   -0.00000    0.00413    0.64776
  1 Ru   -0.00000    0.00413    0.64776
  2 Ru    0.00000    0.00413    0.64776
  3 Ru    0.00000    0.00414    0.64795
  4 Ru    0.00000    0.00414    0.64795
  5 Ru   -0.00000    0.00414    0.64795
  6 Ru    0.00000    0.00412    0.64777
  7 Ru   -0.00000    0.00412    0.64777
  8 Ru    0.00000    0.00412    0.64777
  9 Ru    0.00000    0.00444    0.64800
 10 Ru    0.00000    0.00444    0.64800
 11 Ru   -0.00000    0.00444    0.64800
 12 Ru    0.00000   -0.00836   -0.12795
 13 Ru    0.00000   -0.00836   -0.12795
 14 Ru   -0.00000   -0.00836   -0.12795
 15 Ru    0.00000   -0.00826   -0.12791
 16 Ru   -0.00000   -0.00826   -0.12791
 17 Ru    0.00000   -0.00826   -0.12791
 18 Ru    0.00000   -0.00806   -0.12792
 19 Ru   -0.00000   -0.00806   -0.12792
 20 Ru    0.00000   -0.00806   -0.12792
 21 Ru    0.00000   -0.00813   -0.12793
 22 Ru    0.00000   -0.00813   -0.12793
 23 Ru   -0.00000   -0.00813   -0.12793
 24 Ru   -0.00000    0.00392   -0.53470
 25 Ru   -0.00000    0.00392   -0.53470
 26 Ru    0.00000    0.00392   -0.53470
 27 Ru   -0.00000    0.00401   -0.53489
 28 Ru    0.00000    0.00401   -0.53489
 29 Ru    0.00000    0.00401   -0.53489
 30 Ru    0.00000    0.00391   -0.53468
 31 Ru   -0.00000    0.00391   -0.53468
 32 Ru    0.00000    0.00391   -0.53468
 33 Ru    0.00000    0.00421   -0.53498
 34 Ru    0.00000    0.00421   -0.53498
 35 Ru   -0.00000    0.00421   -0.53498

System changes: positions 

Initializing position-dependent things.

Density initialized from wave functions
       .-------------------.  
      /|                   |  
     / |                   |  
    /  |                   |  
   /   |                   |  
  /    |                   |  
 *     |                   |  
 |     |                   |  
 |     |                   |  
 |     |                   |  
 |     |                   |  
 |     |                   |  
 |     |                   |  
 |     |                   |  
 |     |                   |  
 |     |                   |  
 |     |                   |  
 |     | Ru     Ru    Ru   |  
 |     |                   |  
 |  Ru |  RRu   RRu    Ru  |  
 |    Ru     Ru    Ru      |  
 |   Ru|    Ru    Ru       |  
 |     RRu   RRu    RRu    |  
 |     | Ru    Ru     Ru   |  
 |RuRu | RuRu  RuRu        |  
 |     |                   |  
 |    Ru    Ru     Ru      |  
 Ru    |Ru    Ru           |  
 |     |                   |  
 |     |                   |  
 |     |                   |  
 |     |                   |  
 |     |                   |  
 |     |                   |  
 |     |                   |  
 |     |                   |  
 |     |                   |  
 |     .-------------------.  
 |    /                   /   
 |   /                   /    
 |  /                   /     
 | /                   /      
 |/                   /       
 *-------------------*        

Positions:
   0 Ru     0.000000    0.000000   12.844257    ( 0.0000,  0.0000,  0.0000)
   1 Ru     2.731233    0.000000   12.844257    ( 0.0000,  0.0000,  0.0000)
   2 Ru     5.462466    0.000000   12.844257    ( 0.0000,  0.0000,  0.0000)
   3 Ru     1.365617    2.365317   12.844257    ( 0.0000,  0.0000,  0.0000)
   4 Ru     4.096850    2.365317   12.844257    ( 0.0000,  0.0000,  0.0000)
   5 Ru     6.828083    2.365317   12.844257    ( 0.0000,  0.0000,  0.0000)
   6 Ru     0.000000    4.730635   12.844257    ( 0.0000,  0.0000,  0.0000)
   7 Ru     2.731233    4.730635   12.844257    ( 0.0000,  0.0000,  0.0000)
   8 Ru     5.462466    4.730635   12.844257    ( 0.0000,  0.0000,  0.0000)
   9 Ru     1.365617    7.095952   12.844257    ( 0.0000,  0.0000,  0.0000)
  10 Ru     4.096850    7.095952   12.844257    ( 0.0000,  0.0000,  0.0000)
  11 Ru     6.828083    7.095952   12.844257    ( 0.0000,  0.0000,  0.0000)
  12 Ru     0.000000    1.576878   15.000000    ( 0.0000,  0.0000,  0.0000)
  13 Ru     2.731233    1.576878   15.000000    ( 0.0000,  0.0000,  0.0000)
  14 Ru     5.462466    1.576878   15.000000    ( 0.0000,  0.0000,  0.0000)
  15 Ru     1.365617    3.942195   15.000000    ( 0.0000,  0.0000,  0.0000)
  16 Ru     4.096850    3.942195   15.000000    ( 0.0000,  0.0000,  0.0000)
  17 Ru     6.828083    3.942195   15.000000    ( 0.0000,  0.0000,  0.0000)
  18 Ru     0.000000    6.307513   15.000000    ( 0.0000,  0.0000,  0.0000)
  19 Ru     2.731233    6.307513   15.000000    ( 0.0000,  0.0000,  0.0000)
  20 Ru     5.462466    6.307513   15.000000    ( 0.0000,  0.0000,  0.0000)
  21 Ru     1.365617    8.672830   15.000000    ( 0.0000,  0.0000,  0.0000)
  22 Ru     4.096850    8.672830   15.000000    ( 0.0000,  0.0000,  0.0000)
  23 Ru     6.828083    8.672830   15.000000    ( 0.0000,  0.0000,  0.0000)
  24 Ru    -0.000000    0.000661   17.063776    ( 0.0000,  0.0000,  0.0000)
  25 Ru     2.731233    0.000661   17.063776    ( 0.0000,  0.0000,  0.0000)
  26 Ru     5.462466    0.000661   17.063776    ( 0.0000,  0.0000,  0.0000)
  27 Ru     1.365617    2.365987   17.063754    ( 0.0000,  0.0000,  0.0000)
  28 Ru     4.096850    2.365987   17.063754    ( 0.0000,  0.0000,  0.0000)
  29 Ru     6.828083    2.365987   17.063754    ( 0.0000,  0.0000,  0.0000)
  30 Ru     0.000000    4.731294   17.063778    ( 0.0000,  0.0000,  0.0000)
  31 Ru     2.731233    4.731294   17.063778    ( 0.0000,  0.0000,  0.0000)
  32 Ru     5.462466    4.731294   17.063778    ( 0.0000,  0.0000,  0.0000)
  33 Ru     1.365617    7.096655   17.063746    ( 0.0000,  0.0000,  0.0000)
  34 Ru     4.096850    7.096655   17.063746    ( 0.0000,  0.0000,  0.0000)
  35 Ru     6.828083    7.096655   17.063746    ( 0.0000,  0.0000,  0.0000)

Unit cell:
           periodic     x           y           z      points  spacing
  1. axis:    yes    8.193699    0.000000    0.000000    45     0.1821
  2. axis:    yes    0.000000    9.461269    0.000000    49     0.1931
  3. axis:    no     0.000000    0.000000   30.000000   160     0.1875

  Lengths:   8.193699   9.461269  30.000000
  Angles:   90.000000  90.000000  90.000000

Effective grid spacing dv^(1/3) = 0.1875

     iter     time        total  log10-change:
                         energy   eigst   dens
iter:   1 13:14:50 -5041.447114   -1.01
iter:   2 13:15:38 -5037.270021   -2.40  -1.64
iter:   3 13:16:25 -5035.124887   -2.02  -1.83
iter:   4 13:17:12 -5034.841358   -2.55  -2.29
iter:   5 13:17:59 -5034.708056   -2.52  -2.47
iter:   6 13:18:46 -5034.707765c  -3.59  -2.73
iter:   7 13:19:33 -5034.721130c  -3.27  -2.75
iter:   8 13:20:20 -5034.707448c  -3.46  -2.76
iter:   9 13:21:07 -5034.695708c  -3.32  -2.95
iter:  10 13:21:54 -5034.693285c  -4.32  -3.09
iter:  11 13:22:42 -5034.694022c  -4.37  -3.15
iter:  12 13:23:29 -5034.692005c  -4.35  -3.15
iter:  13 13:24:16 -5034.691737c  -4.53  -3.40
iter:  14 13:25:03 -5034.691874c  -4.91  -3.47
iter:  15 13:25:50 -5034.691776c  -5.41  -3.53
iter:  16 13:26:38 -5034.691476c  -5.49  -3.64
iter:  17 13:27:25 -5034.691026c  -5.35  -3.74
iter:  18 13:28:12 -5034.691072c  -6.09  -3.96
iter:  19 13:28:59 -5034.691054c  -6.33  -4.02c
iter:  20 13:29:46 -5034.691141c  -6.20  -4.07c
iter:  21 13:30:33 -5034.691116c  -6.76  -4.23c
iter:  22 13:31:21 -5034.691089c  -6.93  -4.24c
iter:  23 13:32:08 -5034.691158c  -6.68  -4.27c
iter:  24 13:32:55 -5034.691109c  -7.21  -4.32c
iter:  25 13:33:42 -5034.691054c  -6.50  -4.36c
iter:  26 13:34:29 -5034.691119c  -7.08  -4.33c
iter:  27 13:35:17 -5034.691166c  -7.24  -4.55c
iter:  28 13:36:04 -5034.691155c  -7.85c -4.69c

Converged after 28 iterations.

Dipole moment: (0.000000, 20.987254, 0.052306) |e|*Ang

Energy contributions relative to reference atoms: (reference = -4436824.499384)

Kinetic:       +581.209091
Potential:     -668.246631
External:        +0.000000
XC:            -4938.294356
Entropy (-ST):   -1.382731
Local:           -8.667893
SIC:             +0.000000
--------------------------
Free energy:   -5035.382521
Extrapolated:  -5034.691155

Showing only first 2 kpts
 Kpt  Band  Eigenvalues  Occupancy
  0   286     -1.51174    1.85662
  0   287     -1.42701    1.69463
  0   288     -1.32039    1.31288
  0   289     -1.21621    0.80538

  1   286     -1.19948    0.72634
  1   287     -1.19945    0.72620
  1   288     -1.17579    0.62069
  1   289     -1.11531    0.39457


Fermi level: -1.25564

No gap
No difference between direct/indirect transitions

Forces in eV/Ang:
  0 Ru   -0.00000    0.00440    0.52758
  1 Ru    0.00000    0.00440    0.52758
  2 Ru   -0.00000    0.00440    0.52758
  3 Ru    0.00000    0.00416    0.52768
  4 Ru   -0.00000    0.00416    0.52768
  5 Ru   -0.00000    0.00416    0.52768
  6 Ru    0.00000    0.00439    0.52757
  7 Ru    0.00000    0.00439    0.52757
  8 Ru   -0.00000    0.00439    0.52757
  9 Ru    0.00000    0.00446    0.52769
 10 Ru    0.00000    0.00446    0.52769
 11 Ru   -0.00000    0.00446    0.52769
 12 Ru   -0.00000   -0.00708   -0.72176
 13 Ru   -0.00000   -0.00708   -0.72176
 14 Ru    0.00000   -0.00708   -0.72176
 15 Ru   -0.00000   -0.00699   -0.72166
 16 Ru   -0.00000   -0.00699   -0.72166
 17 Ru    0.00000   -0.00699   -0.72166
 18 Ru    0.00000   -0.00679   -0.72172
 19 Ru   -0.00000   -0.00679   -0.72172
 20 Ru    0.00000   -0.00679   -0.72172
 21 Ru   -0.00000   -0.00677   -0.72177
 22 Ru    0.00000   -0.00677   -0.72177
 23 Ru    0.00000   -0.00677   -0.72177
 24 Ru   -0.00000    0.00271    0.18912
 25 Ru    0.00000    0.00271    0.18912
 26 Ru   -0.00000    0.00271    0.18912
 27 Ru    0.00000    0.00240    0.18939
 28 Ru   -0.00000    0.00240    0.18939
 29 Ru   -0.00000    0.00240    0.18939
 30 Ru    0.00000    0.00273    0.18909
 31 Ru    0.00000    0.00273    0.18909
 32 Ru   -0.00000    0.00273    0.18909
 33 Ru    0.00000    0.00235    0.18950
 34 Ru    0.00000    0.00235    0.18950
 35 Ru   -0.00000    0.00235    0.18950

System changes: positions 

Initializing position-dependent things.

Density initialized from wave functions
       .-------------------.  
      /|                   |  
     / |                   |  
    /  |                   |  
   /   |                   |  
  /    |                   |  
 *     |                   |  
 |     |                   |  
 |     |                   |  
 |     |                   |  
 |     |                   |  
 |     |                   |  
 |     |                   |  
 |     |                   |  
 |     |                   |  
 |     |                   |  
 |     |                   |  
 |     | Ru     Ru    Ru   |  
 |     |                   |  
 |  Ru |  RRu   RRu    Ru  |  
 |    Ru     Ru    Ru      |  
 |   Ru|    Ru    Ru       |  
 |     RRu   RRu    RRu    |  
 |     | Ru    Ru     Ru   |  
 |RuRu | RuRu  RuRu        |  
 |     |                   |  
 |    Ru    Ru     Ru      |  
 Ru    |Ru    Ru           |  
 |     |                   |  
 |     |                   |  
 |     |                   |  
 |     |                   |  
 |     |                   |  
 |     |                   |  
 |     |                   |  
 |     |                   |  
 |     |                   |  
 |     .-------------------.  
 |    /                   /   
 |   /                   /    
 |  /                   /     
 | /                   /      
 |/                   /       
 *-------------------*        

Positions:
   0 Ru     0.000000    0.000000   12.844257    ( 0.0000,  0.0000,  0.0000)
   1 Ru     2.731233    0.000000   12.844257    ( 0.0000,  0.0000,  0.0000)
   2 Ru     5.462466    0.000000   12.844257    ( 0.0000,  0.0000,  0.0000)
   3 Ru     1.365617    2.365317   12.844257    ( 0.0000,  0.0000,  0.0000)
   4 Ru     4.096850    2.365317   12.844257    ( 0.0000,  0.0000,  0.0000)
   5 Ru     6.828083    2.365317   12.844257    ( 0.0000,  0.0000,  0.0000)
   6 Ru     0.000000    4.730635   12.844257    ( 0.0000,  0.0000,  0.0000)
   7 Ru     2.731233    4.730635   12.844257    ( 0.0000,  0.0000,  0.0000)
   8 Ru     5.462466    4.730635   12.844257    ( 0.0000,  0.0000,  0.0000)
   9 Ru     1.365617    7.095952   12.844257    ( 0.0000,  0.0000,  0.0000)
  10 Ru     4.096850    7.095952   12.844257    ( 0.0000,  0.0000,  0.0000)
  11 Ru     6.828083    7.095952   12.844257    ( 0.0000,  0.0000,  0.0000)
  12 Ru     0.000000    1.576878   15.000000    ( 0.0000,  0.0000,  0.0000)
  13 Ru     2.731233    1.576878   15.000000    ( 0.0000,  0.0000,  0.0000)
  14 Ru     5.462466    1.576878   15.000000    ( 0.0000,  0.0000,  0.0000)
  15 Ru     1.365617    3.942195   15.000000    ( 0.0000,  0.0000,  0.0000)
  16 Ru     4.096850    3.942195   15.000000    ( 0.0000,  0.0000,  0.0000)
  17 Ru     6.828083    3.942195   15.000000    ( 0.0000,  0.0000,  0.0000)
  18 Ru     0.000000    6.307513   15.000000    ( 0.0000,  0.0000,  0.0000)
  19 Ru     2.731233    6.307513   15.000000    ( 0.0000,  0.0000,  0.0000)
  20 Ru     5.462466    6.307513   15.000000    ( 0.0000,  0.0000,  0.0000)
  21 Ru     1.365617    8.672830   15.000000    ( 0.0000,  0.0000,  0.0000)
  22 Ru     4.096850    8.672830   15.000000    ( 0.0000,  0.0000,  0.0000)
  23 Ru     6.828083    8.672830   15.000000    ( 0.0000,  0.0000,  0.0000)
  24 Ru    -0.000000    0.000562   17.083051    ( 0.0000,  0.0000,  0.0000)
  25 Ru     2.731233    0.000562   17.083051    ( 0.0000,  0.0000,  0.0000)
  26 Ru     5.462466    0.000562   17.083051    ( 0.0000,  0.0000,  0.0000)
  27 Ru     1.365617    2.365882   17.083038    ( 0.0000,  0.0000,  0.0000)
  28 Ru     4.096850    2.365882   17.083038    ( 0.0000,  0.0000,  0.0000)
  29 Ru     6.828083    2.365882   17.083038    ( 0.0000,  0.0000,  0.0000)
  30 Ru     0.000000    4.731196   17.083052    ( 0.0000,  0.0000,  0.0000)
  31 Ru     2.731233    4.731196   17.083052    ( 0.0000,  0.0000,  0.0000)
  32 Ru     5.462466    4.731196   17.083052    ( 0.0000,  0.0000,  0.0000)
  33 Ru     1.365617    7.096544   17.083034    ( 0.0000,  0.0000,  0.0000)
  34 Ru     4.096850    7.096544   17.083034    ( 0.0000,  0.0000,  0.0000)
  35 Ru     6.828083    7.096544   17.083034    ( 0.0000,  0.0000,  0.0000)

Unit cell:
           periodic     x           y           z      points  spacing
  1. axis:    yes    8.193699    0.000000    0.000000    45     0.1821
  2. axis:    yes    0.000000    9.461269    0.000000    49     0.1931
  3. axis:    no     0.000000    0.000000   30.000000   160     0.1875

  Lengths:   8.193699   9.461269  30.000000
  Angles:   90.000000  90.000000  90.000000

Effective grid spacing dv^(1/3) = 0.1875

     iter     time        total  log10-change:
                         energy   eigst   dens
iter:   1 13:37:13 -5035.411882   -2.17
iter:   2 13:38:00 -5034.989489   -3.27  -2.16
iter:   3 13:38:47 -5034.824863   -3.71  -2.29
iter:   4 13:39:35 -5034.740964c  -3.36  -2.52
iter:   5 13:40:22 -5034.711922c  -3.70  -2.84
iter:   6 13:41:09 -5034.706602c  -4.17  -3.02
iter:   7 13:41:56 -5034.707976c  -5.06  -3.22
iter:   8 13:42:44 -5034.704061c  -4.36  -3.28
iter:   9 13:43:31 -5034.704070c  -4.86  -3.62
iter:  10 13:44:18 -5034.703948c  -5.75  -3.73
iter:  11 13:45:05 -5034.703900c  -5.48  -3.75
iter:  12 13:45:52 -5034.703893c  -5.76  -3.85
iter:  13 13:46:39 -5034.703986c  -5.57  -4.01c
iter:  14 13:47:27 -5034.703914c  -6.13  -3.99
iter:  15 13:48:14 -5034.703976c  -6.28  -4.11c
iter:  16 13:49:01 -5034.703971c  -6.83  -4.20c
iter:  17 13:49:48 -5034.703964c  -7.14  -4.30c
iter:  18 13:50:35 -5034.703957c  -7.04  -4.40c
iter:  19 13:51:23 -5034.703957c  -7.79c -4.46c

Converged after 19 iterations.

Dipole moment: (-0.000000, 21.013640, 0.041413) |e|*Ang

Energy contributions relative to reference atoms: (reference = -4436824.499384)

Kinetic:       +568.505085
Potential:     -657.716285
External:        +0.000000
XC:            -4936.195891
Entropy (-ST):   -1.395489
Local:           -8.599121
SIC:             +0.000000
--------------------------
Free energy:   -5035.401702
Extrapolated:  -5034.703957

Showing only first 2 kpts
 Kpt  Band  Eigenvalues  Occupancy
  0   286     -1.50206    1.83659
  0   287     -1.43016    1.69118
  0   288     -1.32682    1.32167
  0   289     -1.22556    0.82890

  1   286     -1.19234    0.67351
  1   287     -1.19233    0.67346
  1   288     -1.17666    0.60534
  1   289     -1.12959    0.42654


Fermi level: -1.26012

No gap
No difference between direct/indirect transitions

Forces in eV/Ang:
  0 Ru    0.00000    0.00415    0.55686
  1 Ru    0.00000    0.00415    0.55686
  2 Ru   -0.00000    0.00415    0.55686
  3 Ru    0.00000    0.00413    0.55706
  4 Ru    0.00000    0.00413    0.55707
  5 Ru   -0.00000    0.00413    0.55706
  6 Ru    0.00000    0.00415    0.55697
  7 Ru    0.00000    0.00415    0.55697
  8 Ru   -0.00000    0.00415    0.55697
  9 Ru   -0.00000    0.00449    0.55708
 10 Ru    0.00000    0.00449    0.55708
 11 Ru    0.00000    0.00449    0.55708
 12 Ru   -0.00000   -0.00719   -0.53722
 13 Ru   -0.00000   -0.00719   -0.53722
 14 Ru    0.00000   -0.00719   -0.53722
 15 Ru   -0.00000   -0.00709   -0.53705
 16 Ru    0.00000   -0.00709   -0.53705
 17 Ru    0.00000   -0.00709   -0.53705
 18 Ru   -0.00000   -0.00695   -0.53712
 19 Ru   -0.00000   -0.00695   -0.53713
 20 Ru    0.00000   -0.00695   -0.53713
 21 Ru   -0.00000   -0.00692   -0.53724
 22 Ru    0.00000   -0.00692   -0.53725
 23 Ru    0.00000   -0.00692   -0.53724
 24 Ru    0.00000    0.00270   -0.02045
 25 Ru   -0.00000    0.00270   -0.02045
 26 Ru    0.00000    0.00270   -0.02045
 27 Ru   -0.00000    0.00283   -0.02026
 28 Ru   -0.00000    0.00283   -0.02026
 29 Ru    0.00000    0.00283   -0.02026
 30 Ru    0.00000    0.00271   -0.02032
 31 Ru   -0.00000    0.00271   -0.02032
 32 Ru    0.00000    0.00271   -0.02032
 33 Ru   -0.00000    0.00271   -0.02023
 34 Ru   -0.00000    0.00271   -0.02023
 35 Ru    0.00000    0.00271   -0.02023

Timing:                                      incl.     excl.
-------------------------------------------------------------------
Density initialized from wave functions:    10.342    10.342   0.2% |
 Symmetrize density:                         0.000     0.000   0.0% |
Forces:                                     59.541    59.541   1.4% ||
Hamiltonian:                                31.483     0.055   0.0% |
 Atomic:                                     0.832     0.413   0.0% |
  XC Correction:                             0.419     0.419   0.0% |
 Calculate atomic Hamiltonians:              5.193     5.193   0.1% |
 Communicate:                                0.038     0.038   0.0% |
 Initialize Hamiltonian:                     0.003     0.003   0.0% |
 Poisson:                                    0.041     0.041   0.0% |
 XC 3D grid:                                25.322     9.386   0.2% |
  VdW-DF integral:                          15.936     0.500   0.0% |
   Convolution:                              1.339     1.339   0.0% |
   FFT:                                      0.444     0.444   0.0% |
   gather:                                   3.485     3.485   0.1% |
   hmm1:                                     0.458     0.458   0.0% |
   hmm2:                                     0.773     0.773   0.0% |
   iFFT:                                     0.444     0.444   0.0% |
   potential:                                4.690     0.149   0.0% |
    collect:                                 0.240     0.240   0.0% |
    p1:                                      2.522     2.522   0.1% |
    p2:                                      1.344     1.344   0.0% |
    sum:                                     0.435     0.435   0.0% |
   splines:                                  3.803     3.803   0.1% |
LCAO initialization:                        60.667     0.089   0.0% |
 LCAO eigensolver:                           5.068     0.001   0.0% |
  Calculate projections:                     0.011     0.011   0.0% |
  DenseAtomicCorrection:                     0.013     0.013   0.0% |
  Distribute overlap matrix:                 0.327     0.327   0.0% |
  Orbital Layouts:                           0.201     0.201   0.0% |
  Potential matrix:                          4.501     4.501   0.1% |
  Sum over cells:                            0.014     0.014   0.0% |
 LCAO to grid:                              54.655    54.655   1.3% ||
 Set positions (LCAO WFS):                   0.855     0.385   0.0% |
  Basic WFS set positions:                   0.001     0.001   0.0% |
  Basis functions set positions:             0.000     0.000   0.0% |
  P tci:                                     0.257     0.257   0.0% |
  ST tci:                                    0.192     0.192   0.0% |
  mktci:                                     0.020     0.020   0.0% |
PWDescriptor:                                0.058     0.058   0.0% |
Redistribute:                                0.007     0.007   0.0% |
SCF-cycle:                                4165.443     4.218   0.1% |
 Davidson:                                3258.128   660.155  15.2% |-----|
  Apply H:                                 314.986   308.825   7.1% |--|
   HMM T:                                    6.162     6.162   0.1% |
  Subspace diag:                           591.456     0.014   0.0% |
   calc_h_matrix:                          422.042   103.951   2.4% ||
    Apply H:                               318.091   311.831   7.2% |--|
     HMM T:                                  6.260     6.260   0.1% |
   diagonalize:                              6.339     6.339   0.1% |
   rotate_psi:                             163.061   163.061   3.8% |-|
  calc. matrices:                         1261.476   637.830  14.7% |-----|
   Apply H:                                623.646   611.496  14.1% |-----|
    HMM T:                                  12.150    12.150   0.3% |
  diagonalize:                             118.871   118.871   2.7% ||
  rotate_psi:                              311.183   311.183   7.2% |--|
 Density:                                  298.738     0.002   0.0% |
  Atomic density matrices:                   0.561     0.561   0.0% |
  Mix:                                     136.418   136.418   3.1% ||
  Multipole moments:                         0.045     0.045   0.0% |
  Pseudo density:                          161.711   161.709   3.7% ||
   Symmetrize density:                       0.002     0.002   0.0% |
 Hamiltonian:                              591.151     0.991   0.0% |
  Atomic:                                   17.734     8.827   0.2% |
   XC Correction:                            8.907     8.907   0.2% |
  Calculate atomic Hamiltonians:           110.041   110.041   2.5% ||
  Communicate:                               1.376     1.376   0.0% |
  Poisson:                                   0.813     0.813   0.0% |
  XC 3D grid:                              460.197   201.292   4.6% |-|
   VdW-DF integral:                        258.905    10.662   0.2% |
    Convolution:                            28.627    28.627   0.7% |
    FFT:                                    10.314    10.314   0.2% |
    gather:                                 73.974    73.974   1.7% ||
    hmm1:                                    9.892     9.892   0.2% |
    hmm2:                                   16.226    16.226   0.4% |
    iFFT:                                    9.478     9.478   0.2% |
    potential:                              99.733     2.971   0.1% |
     collect:                                5.028     5.028   0.1% |
     p1:                                    54.026    54.026   1.2% |
     p2:                                    28.785    28.785   0.7% |
     sum:                                    8.922     8.922   0.2% |
    splines:                                 0.001     0.001   0.0% |
 Orthonormalize:                            13.209     0.001   0.0% |
  calc_s_matrix:                             2.324     2.324   0.1% |
  inverse-cholesky:                          0.154     0.154   0.0% |
  projections:                               7.010     7.010   0.2% |
  rotate_psi_s:                              3.720     3.720   0.1% |
Set symmetry:                                0.000     0.000   0.0% |
Other:                                      16.440    16.440   0.4% |
-------------------------------------------------------------------
Total:                                              4343.982 100.0%

Memory usage: 2.26 GiB
Date: Fri Apr 25 13:51:38 2025
