
  ___ ___ ___ _ _ _  
 |   |   |_  | | | | 
 | | | | | . | | | | 
 |__ |  _|___|_____|  25.1.1b1
 |___|_|             

User:   dmapa@x147.nifl.fysik.dtu.dk
Date:   Wed Apr 23 22:21:09 2025
Arch:   x86_64
Pid:    339477
CWD:    /home/cat/dmapa/gpaw/dissads/tree/surfaces/BEEF-Ir/min_surf/relax
Python: 3.11.3
gpaw:   /home/cat/dmapa/bin/venv-asrlib/gpaw/gpaw (55eb60cdf0)
_gpaw:  /home/cat/dmapa/bin/venv-asrlib/gpaw/build/lib.linux-x86_64-broadwell_el8-cpython-311/
        _gpaw.cpython-311-x86_64-linux-gnu.so (55eb60cdf0)
ase:    /home/cat/dmapa/bin/venv-asrlib/ase/ase (version 3.26.0b1-f4168b42a5)
numpy:  /home/modules/software/SciPy-bundle/2023.07-gfbf-2023a/lib/python3.11/site-packages/numpy (version 1.25.1)
scipy:  /home/modules/software/SciPy-bundle/2023.07-gfbf-2023a/lib/python3.11/site-packages/scipy (version 1.11.1)
libxc:  6.2.2
units:  Angstrom and eV
cores: 24
OpenMP: False
OMP_NUM_THREADS: 1

Input parameters:
  kpts: {size: [4, 3, 1]}
  mixer: {backend: pulay,
          beta: 0.02,
          method: separate,
          nmaxold: 5,
          weight: 50.0}
  mode: {ecut: 500,
         name: pw}
  spinpol: False
  xc: BEEF-vdW

System changes: positions, numbers, cell, pbc, initial_charges, initial_magmoms 

Initialize ...

species:
  Ir:
    name: Iridium
    id: fcdd1dd1ce91fa61afbba7769971f98a
    Z: 77.0
    valence: 15
    core: 62
    charge: 0.0
    file: /home/modules/software/GPAW-setups/24.11.0/Ir.PBE.gz
    compensation charges: {type: gauss,
                           rc: 0.40,
                           lmax: 2}
    cutoffs: {filter: 2.40,
              core: 2.36}
    projectors:
      #              energy  rcut
      - 6s(2.00)    -6.307   1.296
      - 5p(6.00)   -54.741   1.328
      - 6p(0.00)    -1.224   1.328
      - 5d(7.00)    -7.169   1.286
      -  s          20.905   1.296
      -  d          20.043   1.286
  
    # Using partial waves for Ir as LCAO basis

Reference energy: -17441454.576081  # eV

Spin-paired calculation

Convergence criteria:
 Maximum [total energy] change in last 3 cyles: 0.0005 eV / valence electron
 Maximum integral of absolute [dens]ity change: 0.0001 electrons / valence electron
 Maximum integral of absolute [eigenst]ate change: 4e-08 eV^2 / valence electron
 Maximum number of scf [iter]ations: 333
 (Square brackets indicate name in SCF output, whereas a 'c' in
 the SCF output indicates the quantity has converged.)

Symmetries present (total): 2

  ( 1  0  0)  (-1  0  0)
  ( 0  1  0)  ( 0  1  0)
  ( 0  0  1)  ( 0  0  1)

12 k-points: 4 x 3 x 1 Monkhorst-Pack grid
4 k-points in the irreducible part of the Brillouin zone
       k-points in crystal coordinates                weights
   0:     0.12500000    0.00000000    0.00000000          2/12
   1:     0.12500000    0.33333333    0.00000000          4/12
   2:     0.37500000    0.00000000    0.00000000          2/12
   3:     0.37500000    0.33333333    0.00000000          4/12

Wave functions: Plane wave expansion
  Cutoff energy: 500.000 eV
  Number of coefficients (min, max): 59639, 59720
  Pulay-stress correction: 0.000000 eV/Ang^3 (de/decut=0.000000)
  Using FFTW library
  ScaLapack parameters: grid=1x1, blocksize=None
  Wavefunction extrapolation:
    Improved wavefunction reuse through dual PAW basis 

Occupation numbers: Fermi-Dirac:
  width: 0.1000  # eV
 

Eigensolver
   Davidson(niter=2) 

Densities:
  Coarse grid: 45*50*160 grid
  Fine grid: 90*100*320 grid
  Total Charge: 0.000000 

Density mixing:
  Method: separate
  Backend: pulay
  Linear mixing parameter: 0.02
  old densities: 5
  Damping of long wavelength oscillations: 50 

Hamiltonian:
  XC and Coulomb potentials evaluated on a 90*100*320 grid
  Using the BEEF-vdW Exchange-Correlation functional
  External potential:
    NoExternalPotential
 

XC parameters: BEEF-vdW with 2 nearest neighbor stencil

Memory estimate:
  Process memory now: 3532.02 MiB
  Calculator: 167.87 MiB
    Density: 27.20 MiB
      Arrays: 12.05 MiB
      Localized functions: 10.52 MiB
      Mixer: 4.63 MiB
    Hamiltonian: 8.09 MiB
      Arrays: 7.88 MiB
      XC: 0.00 MiB
      Poisson: 0.00 MiB
      vbar: 0.21 MiB
    Wavefunctions: 132.58 MiB
      Arrays psit_nG: 49.82 MiB
      Eigensolver: 67.00 MiB
      Projections: 0.54 MiB
      Projectors: 1.14 MiB
      PW-descriptor: 14.07 MiB

Total number of cores used: 24
Parallelization over k-points: 4
Domain decomposition: 1 x 1 x 6

Number of atoms: 36
Number of atomic orbitals: 432
Number of bands in calculation: 328
Number of valence electrons: 540
Bands to converge: occupied

... initialized

Initializing position-dependent things.

Density initialized from atomic densities
Creating initial wave functions:
  328 bands from LCAO basis set

       .-------------------.  
      /|                   |  
     / |                   |  
    /  |                   |  
   /   |                   |  
  /    |                   |  
 *     |                   |  
 |     |                   |  
 |     |                   |  
 |     |                   |  
 |     |                   |  
 |     |                   |  
 |     |                   |  
 |     |                   |  
 |     |                   |  
 |     |                   |  
 |     |                   |  
 |     | Ir    Ir     Ir   |  
 |     |                   |  
 |  Ir |  IIr   IIr    Ir  |  
 |    Ir    Ir     Ir      |  
 |   Ir|    Ir    Ir       |  
 Ir   IIIr   IIr   IIr     |  
 |     |                   |  
 |Ir   |IIr   IIr    Ir    |  
 | Ir  |  Ir    Ir         |  
 |     |                   |  
 |   Ir|   Ir     Ir       |  
 |     |                   |  
 |     |                   |  
 |     |                   |  
 |     |                   |  
 |     |                   |  
 |     |                   |  
 |     |                   |  
 |     |                   |  
 |     |                   |  
 |     .-------------------.  
 |    /                   /   
 |   /                   /    
 |  /                   /     
 | /                   /      
 |/                   /       
 *-------------------*        

Positions:
   0 Ir     1.372995    0.792699   12.757908    ( 0.0000,  0.0000,  0.0000)
   1 Ir     4.118986    0.792699   12.757908    ( 0.0000,  0.0000,  0.0000)
   2 Ir     6.864977    0.792699   12.757908    ( 0.0000,  0.0000,  0.0000)
   3 Ir     0.000000    3.170797   12.757908    ( 0.0000,  0.0000,  0.0000)
   4 Ir     2.745991    3.170797   12.757908    ( 0.0000,  0.0000,  0.0000)
   5 Ir     5.491981    3.170797   12.757908    ( 0.0000,  0.0000,  0.0000)
   6 Ir     1.372995    5.548895   12.757908    ( 0.0000,  0.0000,  0.0000)
   7 Ir     4.118986    5.548895   12.757908    ( 0.0000,  0.0000,  0.0000)
   8 Ir     6.864977    5.548895   12.757908    ( 0.0000,  0.0000,  0.0000)
   9 Ir     0.000000    7.926992   12.757908    ( 0.0000,  0.0000,  0.0000)
  10 Ir     2.745991    7.926992   12.757908    ( 0.0000,  0.0000,  0.0000)
  11 Ir     5.491981    7.926992   12.757908    ( 0.0000,  0.0000,  0.0000)
  12 Ir     0.000000    1.585398   15.000000    ( 0.0000,  0.0000,  0.0000)
  13 Ir     2.745991    1.585398   15.000000    ( 0.0000,  0.0000,  0.0000)
  14 Ir     5.491981    1.585398   15.000000    ( 0.0000,  0.0000,  0.0000)
  15 Ir     1.372995    3.963496   15.000000    ( 0.0000,  0.0000,  0.0000)
  16 Ir     4.118986    3.963496   15.000000    ( 0.0000,  0.0000,  0.0000)
  17 Ir     6.864977    3.963496   15.000000    ( 0.0000,  0.0000,  0.0000)
  18 Ir     0.000000    6.341594   15.000000    ( 0.0000,  0.0000,  0.0000)
  19 Ir     2.745991    6.341594   15.000000    ( 0.0000,  0.0000,  0.0000)
  20 Ir     5.491981    6.341594   15.000000    ( 0.0000,  0.0000,  0.0000)
  21 Ir     1.372995    8.719691   15.000000    ( 0.0000,  0.0000,  0.0000)
  22 Ir     4.118986    8.719691   15.000000    ( 0.0000,  0.0000,  0.0000)
  23 Ir     6.864977    8.719691   15.000000    ( 0.0000,  0.0000,  0.0000)
  24 Ir     0.000000    0.000000   17.242092    ( 0.0000,  0.0000,  0.0000)
  25 Ir     2.745991    0.000000   17.242092    ( 0.0000,  0.0000,  0.0000)
  26 Ir     5.491981    0.000000   17.242092    ( 0.0000,  0.0000,  0.0000)
  27 Ir     1.372995    2.378098   17.242092    ( 0.0000,  0.0000,  0.0000)
  28 Ir     4.118986    2.378098   17.242092    ( 0.0000,  0.0000,  0.0000)
  29 Ir     6.864977    2.378098   17.242092    ( 0.0000,  0.0000,  0.0000)
  30 Ir     0.000000    4.756195   17.242092    ( 0.0000,  0.0000,  0.0000)
  31 Ir     2.745991    4.756195   17.242092    ( 0.0000,  0.0000,  0.0000)
  32 Ir     5.491981    4.756195   17.242092    ( 0.0000,  0.0000,  0.0000)
  33 Ir     1.372995    7.134293   17.242092    ( 0.0000,  0.0000,  0.0000)
  34 Ir     4.118986    7.134293   17.242092    ( 0.0000,  0.0000,  0.0000)
  35 Ir     6.864977    7.134293   17.242092    ( 0.0000,  0.0000,  0.0000)

Unit cell:
           periodic     x           y           z      points  spacing
  1. axis:    yes    8.237972    0.000000    0.000000    45     0.1831
  2. axis:    yes    0.000000    9.512391    0.000000    50     0.1902
  3. axis:    no     0.000000    0.000000   30.000000   160     0.1875

  Lengths:   8.237972   9.512391  30.000000
  Angles:   90.000000  90.000000  90.000000

Effective grid spacing dv^(1/3) = 0.1869

     iter     time        total  log10-change:
                         energy   eigst   dens
iter:   1 22:22:08 -11715.323509
iter:   2 22:22:27 -11715.541394   -1.17  -1.55
iter:   3 22:22:45 -11717.174505   -1.67  -1.54
iter:   4 22:23:03 -11713.914239   -1.19  -1.48
iter:   5 22:23:22 -11714.000510   -2.23  -1.77
iter:   6 22:23:40 -11716.106566   -1.67  -1.75
iter:   7 22:23:58 -11714.865269   -2.15  -1.84
iter:   8 22:24:17 -11714.810415   -2.72  -2.06
iter:   9 22:24:35 -11714.676741c  -2.79  -2.16
iter:  10 22:24:53 -11714.644559c  -2.55  -2.32
iter:  11 22:25:12 -11714.611059c  -3.58  -2.56
iter:  12 22:25:30 -11714.610717c  -3.13  -2.65
iter:  13 22:25:49 -11714.611912c  -3.63  -2.97
iter:  14 22:26:07 -11714.611203c  -3.97  -3.02
iter:  15 22:26:25 -11714.609731c  -4.20  -3.03
iter:  16 22:26:44 -11714.609410c  -4.47  -3.05
iter:  17 22:27:02 -11714.606236c  -4.51  -3.10
iter:  18 22:27:20 -11714.605300c  -4.51  -3.29
iter:  19 22:27:39 -11714.605116c  -4.99  -3.68
iter:  20 22:27:57 -11714.604882c  -5.32  -3.70
iter:  21 22:28:15 -11714.604784c  -5.60  -3.80
iter:  22 22:28:34 -11714.604783c  -5.90  -3.96
iter:  23 22:28:52 -11714.604782c  -6.11  -4.09c
iter:  24 22:29:10 -11714.604802c  -6.31  -4.11c
iter:  25 22:29:29 -11714.604805c  -6.42  -4.18c
iter:  26 22:29:47 -11714.604807c  -6.62  -4.29c
iter:  27 22:30:05 -11714.604789c  -6.65  -4.31c
iter:  28 22:30:24 -11714.604775c  -6.96  -4.38c
iter:  29 22:30:42 -11714.604776c  -7.16  -4.42c
iter:  30 22:31:00 -11714.604810c  -6.85  -4.46c
iter:  31 22:31:19 -11714.604804c  -7.27  -4.53c
iter:  32 22:31:37 -11714.604736c  -7.01  -4.56c
iter:  33 22:31:56 -11714.604727c  -7.47c -4.69c

Converged after 33 iterations.

Dipole moment: (0.000000, -0.333232, -0.000030) |e|*Ang

Energy contributions relative to reference atoms: (reference = -17441454.576081)

Kinetic:       +1044.351185
Potential:     -1000.599713
External:        +0.000000
XC:            -11749.766541
Entropy (-ST):   -1.735263
Local:           -7.722026
SIC:             +0.000000
--------------------------
Free energy:   -11715.472358
Extrapolated:  -11714.604727

Showing only first 2 kpts
 Kpt  Band  Eigenvalues  Occupancy
  0   268     -1.28269    1.10833
  0   269     -1.26231    1.00684
  0   270     -1.21723    0.78485
  0   271     -1.16438    0.55152

  1   268     -1.36738    1.48704
  1   269     -1.35955    1.45664
  1   270     -1.27108    1.05063
  1   271     -1.26988    1.04465


Fermi level: -1.26094

No gap
No difference between direct/indirect transitions

Forces in eV/Ang:
  0 Ir   -0.00000   -0.00737    0.47255
  1 Ir    0.00000   -0.00737    0.47255
  2 Ir    0.00000   -0.00737    0.47255
  3 Ir    0.00000   -0.00763    0.47286
  4 Ir   -0.00000   -0.00763    0.47287
  5 Ir    0.00000   -0.00763    0.47287
  6 Ir   -0.00000   -0.00737    0.47255
  7 Ir    0.00000   -0.00737    0.47255
  8 Ir    0.00000   -0.00737    0.47255
  9 Ir    0.00000   -0.00763    0.47286
 10 Ir   -0.00000   -0.00763    0.47287
 11 Ir    0.00000   -0.00763    0.47287
 12 Ir    0.00000    0.00043    0.00002
 13 Ir    0.00000    0.00043    0.00002
 14 Ir   -0.00000    0.00043    0.00002
 15 Ir   -0.00000    0.00002    0.00003
 16 Ir    0.00000    0.00002    0.00003
 17 Ir    0.00000    0.00002    0.00003
 18 Ir    0.00000    0.00043    0.00002
 19 Ir    0.00000    0.00043    0.00002
 20 Ir   -0.00000    0.00043    0.00002
 21 Ir   -0.00000    0.00002    0.00003
 22 Ir    0.00000    0.00002    0.00003
 23 Ir    0.00000    0.00002    0.00003
 24 Ir    0.00000    0.00706   -0.47260
 25 Ir   -0.00000    0.00706   -0.47260
 26 Ir    0.00000    0.00706   -0.47260
 27 Ir    0.00000    0.00731   -0.47225
 28 Ir    0.00000    0.00731   -0.47225
 29 Ir   -0.00000    0.00731   -0.47225
 30 Ir    0.00000    0.00706   -0.47260
 31 Ir   -0.00000    0.00706   -0.47260
 32 Ir    0.00000    0.00706   -0.47260
 33 Ir    0.00000    0.00731   -0.47225
 34 Ir    0.00000    0.00731   -0.47225
 35 Ir   -0.00000    0.00731   -0.47225

System changes: positions 

Initializing position-dependent things.

Density initialized from wave functions
       .-------------------.  
      /|                   |  
     / |                   |  
    /  |                   |  
   /   |                   |  
  /    |                   |  
 *     |                   |  
 |     |                   |  
 |     |                   |  
 |     |                   |  
 |     |                   |  
 |     |                   |  
 |     |                   |  
 |     |                   |  
 |     |                   |  
 |     |                   |  
 |     |                   |  
 |     | Ir     Ir    Ir   |  
 |     |                   |  
 |  Ir |  IIr   IIr    Ir  |  
 |    Ir     Ir    Ir      |  
 |   Ir|    Ir    Ir       |  
 Ir   IIIr   IIr   IIr     |  
 |     |                   |  
 |Ir   |IIr   IIr    Ir    |  
 | Ir  |  Ir    Ir         |  
 |     |                   |  
 |   Ir|   Ir     Ir       |  
 |     |                   |  
 |     |                   |  
 |     |                   |  
 |     |                   |  
 |     |                   |  
 |     |                   |  
 |     |                   |  
 |     |                   |  
 |     |                   |  
 |     .-------------------.  
 |    /                   /   
 |   /                   /    
 |  /                   /     
 | /                   /      
 |/                   /       
 *-------------------*        

Positions:
   0 Ir     1.372995    0.792699   12.757908    ( 0.0000,  0.0000,  0.0000)
   1 Ir     4.118986    0.792699   12.757908    ( 0.0000,  0.0000,  0.0000)
   2 Ir     6.864977    0.792699   12.757908    ( 0.0000,  0.0000,  0.0000)
   3 Ir     0.000000    3.170797   12.757908    ( 0.0000,  0.0000,  0.0000)
   4 Ir     2.745991    3.170797   12.757908    ( 0.0000,  0.0000,  0.0000)
   5 Ir     5.491981    3.170797   12.757908    ( 0.0000,  0.0000,  0.0000)
   6 Ir     1.372995    5.548895   12.757908    ( 0.0000,  0.0000,  0.0000)
   7 Ir     4.118986    5.548895   12.757908    ( 0.0000,  0.0000,  0.0000)
   8 Ir     6.864977    5.548895   12.757908    ( 0.0000,  0.0000,  0.0000)
   9 Ir     0.000000    7.926992   12.757908    ( 0.0000,  0.0000,  0.0000)
  10 Ir     2.745991    7.926992   12.757908    ( 0.0000,  0.0000,  0.0000)
  11 Ir     5.491981    7.926992   12.757908    ( 0.0000,  0.0000,  0.0000)
  12 Ir     0.000000    1.585398   15.000000    ( 0.0000,  0.0000,  0.0000)
  13 Ir     2.745991    1.585398   15.000000    ( 0.0000,  0.0000,  0.0000)
  14 Ir     5.491981    1.585398   15.000000    ( 0.0000,  0.0000,  0.0000)
  15 Ir     1.372995    3.963496   15.000000    ( 0.0000,  0.0000,  0.0000)
  16 Ir     4.118986    3.963496   15.000000    ( 0.0000,  0.0000,  0.0000)
  17 Ir     6.864977    3.963496   15.000000    ( 0.0000,  0.0000,  0.0000)
  18 Ir     0.000000    6.341594   15.000000    ( 0.0000,  0.0000,  0.0000)
  19 Ir     2.745991    6.341594   15.000000    ( 0.0000,  0.0000,  0.0000)
  20 Ir     5.491981    6.341594   15.000000    ( 0.0000,  0.0000,  0.0000)
  21 Ir     1.372995    8.719691   15.000000    ( 0.0000,  0.0000,  0.0000)
  22 Ir     4.118986    8.719691   15.000000    ( 0.0000,  0.0000,  0.0000)
  23 Ir     6.864977    8.719691   15.000000    ( 0.0000,  0.0000,  0.0000)
  24 Ir     0.000000    0.000101   17.235340    ( 0.0000,  0.0000,  0.0000)
  25 Ir     2.745991    0.000101   17.235341    ( 0.0000,  0.0000,  0.0000)
  26 Ir     5.491981    0.000101   17.235341    ( 0.0000,  0.0000,  0.0000)
  27 Ir     1.372995    2.378202   17.235346    ( 0.0000,  0.0000,  0.0000)
  28 Ir     4.118986    2.378202   17.235346    ( 0.0000,  0.0000,  0.0000)
  29 Ir     6.864977    2.378202   17.235346    ( 0.0000,  0.0000,  0.0000)
  30 Ir     0.000000    4.756296   17.235340    ( 0.0000,  0.0000,  0.0000)
  31 Ir     2.745991    4.756296   17.235341    ( 0.0000,  0.0000,  0.0000)
  32 Ir     5.491981    4.756296   17.235341    ( 0.0000,  0.0000,  0.0000)
  33 Ir     1.372995    7.134397   17.235346    ( 0.0000,  0.0000,  0.0000)
  34 Ir     4.118986    7.134397   17.235346    ( 0.0000,  0.0000,  0.0000)
  35 Ir     6.864977    7.134397   17.235346    ( 0.0000,  0.0000,  0.0000)

Unit cell:
           periodic     x           y           z      points  spacing
  1. axis:    yes    8.237972    0.000000    0.000000    45     0.1831
  2. axis:    yes    0.000000    9.512391    0.000000    50     0.1902
  3. axis:    no     0.000000    0.000000   30.000000   160     0.1875

  Lengths:   8.237972   9.512391  30.000000
  Angles:   90.000000  90.000000  90.000000

Effective grid spacing dv^(1/3) = 0.1869

     iter     time        total  log10-change:
                         energy   eigst   dens
iter:   1 22:32:21 -11714.695744   -3.12
iter:   2 22:32:39 -11714.670470   -4.47  -2.69
iter:   3 22:32:58 -11714.652953c  -4.29  -2.84
iter:   4 22:33:16 -11714.648390c  -4.47  -3.06
iter:   5 22:33:34 -11714.646430c  -4.76  -3.23
iter:   6 22:33:53 -11714.645598c  -4.60  -3.46
iter:   7 22:34:11 -11714.645483c  -5.90  -3.84
iter:   8 22:34:29 -11714.645403c  -5.82  -3.93
iter:   9 22:34:48 -11714.645405c  -5.86  -4.00c
iter:  10 22:35:06 -11714.645404c  -6.58  -4.23c
iter:  11 22:35:24 -11714.645381c  -6.87  -4.30c
iter:  12 22:35:43 -11714.645371c  -7.25  -4.28c
iter:  13 22:36:01 -11714.645404c  -6.36  -4.33c
iter:  14 22:36:19 -11714.645375c  -7.18  -4.45c
iter:  15 22:36:38 -11714.645355c  -6.81  -4.63c
iter:  16 22:36:56 -11714.645393c  -6.95  -4.75c
iter:  17 22:37:14 -11714.645392c  -8.23c -4.74c

Converged after 17 iterations.

Dipole moment: (0.000000, -0.353369, -0.001250) |e|*Ang

Energy contributions relative to reference atoms: (reference = -17441454.576081)

Kinetic:       +1048.846456
Potential:     -1004.467617
External:        +0.000000
XC:            -11750.399658
Entropy (-ST):   -1.726172
Local:           -7.761487
SIC:             +0.000000
--------------------------
Free energy:   -11715.508478
Extrapolated:  -11714.645392

Showing only first 2 kpts
 Kpt  Band  Eigenvalues  Occupancy
  0   268     -1.28013    1.10131
  0   269     -1.25947    0.99835
  0   270     -1.21482    0.77882
  0   271     -1.16148    0.54452

  1   268     -1.36598    1.48606
  1   269     -1.35679    1.45020
  1   270     -1.27105    1.05619
  1   271     -1.26662    1.03408


Fermi level: -1.25980

No gap
No difference between direct/indirect transitions

Forces in eV/Ang:
  0 Ir    0.00000   -0.00718    0.46745
  1 Ir    0.00000   -0.00718    0.46745
  2 Ir   -0.00000   -0.00718    0.46745
  3 Ir    0.00000   -0.00774    0.46720
  4 Ir    0.00000   -0.00774    0.46720
  5 Ir   -0.00000   -0.00774    0.46720
  6 Ir    0.00000   -0.00718    0.46745
  7 Ir    0.00000   -0.00718    0.46745
  8 Ir   -0.00000   -0.00718    0.46745
  9 Ir    0.00000   -0.00774    0.46720
 10 Ir    0.00000   -0.00774    0.46720
 11 Ir   -0.00000   -0.00774    0.46720
 12 Ir    0.00000    0.00075   -0.05430
 13 Ir    0.00000    0.00075   -0.05430
 14 Ir   -0.00000    0.00075   -0.05430
 15 Ir    0.00000    0.00035   -0.05432
 16 Ir    0.00000    0.00035   -0.05432
 17 Ir   -0.00000    0.00035   -0.05432
 18 Ir    0.00000    0.00075   -0.05430
 19 Ir    0.00000    0.00075   -0.05430
 20 Ir   -0.00000    0.00075   -0.05430
 21 Ir    0.00000    0.00035   -0.05432
 22 Ir    0.00000    0.00035   -0.05432
 23 Ir   -0.00000    0.00035   -0.05432
 24 Ir    0.00000    0.00694   -0.40353
 25 Ir    0.00000    0.00694   -0.40353
 26 Ir   -0.00000    0.00694   -0.40353
 27 Ir    0.00000    0.00677   -0.40382
 28 Ir    0.00000    0.00677   -0.40382
 29 Ir   -0.00000    0.00677   -0.40382
 30 Ir    0.00000    0.00694   -0.40353
 31 Ir    0.00000    0.00694   -0.40353
 32 Ir   -0.00000    0.00694   -0.40353
 33 Ir    0.00000    0.00677   -0.40382
 34 Ir    0.00000    0.00677   -0.40382
 35 Ir   -0.00000    0.00677   -0.40382

System changes: positions 

Initializing position-dependent things.

Density initialized from wave functions
       .-------------------.  
      /|                   |  
     / |                   |  
    /  |                   |  
   /   |                   |  
  /    |                   |  
 *     |                   |  
 |     |                   |  
 |     |                   |  
 |     |                   |  
 |     |                   |  
 |     |                   |  
 |     |                   |  
 |     |                   |  
 |     |                   |  
 |     |                   |  
 |     |                   |  
 |     | Ir     Ir    Ir   |  
 |     |                   |  
 |  Ir |  IIr   IIr    Ir  |  
 |    Ir     Ir    Ir      |  
 |   Ir|    Ir    Ir       |  
 Ir   IIIr   IIr   IIr     |  
 |     |                   |  
 |Ir   |IIr   IIr    Ir    |  
 | Ir  |  Ir    Ir         |  
 |     |                   |  
 |   Ir|   Ir     Ir       |  
 |     |                   |  
 |     |                   |  
 |     |                   |  
 |     |                   |  
 |     |                   |  
 |     |                   |  
 |     |                   |  
 |     |                   |  
 |     |                   |  
 |     .-------------------.  
 |    /                   /   
 |   /                   /    
 |  /                   /     
 | /                   /      
 |/                   /       
 *-------------------*        

Positions:
   0 Ir     1.372995    0.792699   12.757908    ( 0.0000,  0.0000,  0.0000)
   1 Ir     4.118986    0.792699   12.757908    ( 0.0000,  0.0000,  0.0000)
   2 Ir     6.864977    0.792699   12.757908    ( 0.0000,  0.0000,  0.0000)
   3 Ir     0.000000    3.170797   12.757908    ( 0.0000,  0.0000,  0.0000)
   4 Ir     2.745991    3.170797   12.757908    ( 0.0000,  0.0000,  0.0000)
   5 Ir     5.491981    3.170797   12.757908    ( 0.0000,  0.0000,  0.0000)
   6 Ir     1.372995    5.548895   12.757908    ( 0.0000,  0.0000,  0.0000)
   7 Ir     4.118986    5.548895   12.757908    ( 0.0000,  0.0000,  0.0000)
   8 Ir     6.864977    5.548895   12.757908    ( 0.0000,  0.0000,  0.0000)
   9 Ir     0.000000    7.926992   12.757908    ( 0.0000,  0.0000,  0.0000)
  10 Ir     2.745991    7.926992   12.757908    ( 0.0000,  0.0000,  0.0000)
  11 Ir     5.491981    7.926992   12.757908    ( 0.0000,  0.0000,  0.0000)
  12 Ir     0.000000    1.585398   15.000000    ( 0.0000,  0.0000,  0.0000)
  13 Ir     2.745991    1.585398   15.000000    ( 0.0000,  0.0000,  0.0000)
  14 Ir     5.491981    1.585398   15.000000    ( 0.0000,  0.0000,  0.0000)
  15 Ir     1.372995    3.963496   15.000000    ( 0.0000,  0.0000,  0.0000)
  16 Ir     4.118986    3.963496   15.000000    ( 0.0000,  0.0000,  0.0000)
  17 Ir     6.864977    3.963496   15.000000    ( 0.0000,  0.0000,  0.0000)
  18 Ir     0.000000    6.341594   15.000000    ( 0.0000,  0.0000,  0.0000)
  19 Ir     2.745991    6.341594   15.000000    ( 0.0000,  0.0000,  0.0000)
  20 Ir     5.491981    6.341594   15.000000    ( 0.0000,  0.0000,  0.0000)
  21 Ir     1.372995    8.719691   15.000000    ( 0.0000,  0.0000,  0.0000)
  22 Ir     4.118986    8.719691   15.000000    ( 0.0000,  0.0000,  0.0000)
  23 Ir     6.864977    8.719691   15.000000    ( 0.0000,  0.0000,  0.0000)
  24 Ir     0.000000    0.000782   17.195722    ( 0.0000,  0.0000,  0.0000)
  25 Ir     2.745991    0.000782   17.195722    ( 0.0000,  0.0000,  0.0000)
  26 Ir     5.491981    0.000782   17.195722    ( 0.0000,  0.0000,  0.0000)
  27 Ir     1.372995    2.378867   17.195698    ( 0.0000,  0.0000,  0.0000)
  28 Ir     4.118986    2.378867   17.195698    ( 0.0000,  0.0000,  0.0000)
  29 Ir     6.864977    2.378867   17.195698    ( 0.0000,  0.0000,  0.0000)
  30 Ir    -0.000000    4.756978   17.195722    ( 0.0000,  0.0000,  0.0000)
  31 Ir     2.745991    4.756977   17.195722    ( 0.0000,  0.0000,  0.0000)
  32 Ir     5.491981    4.756977   17.195722    ( 0.0000,  0.0000,  0.0000)
  33 Ir     1.372995    7.135062   17.195698    ( 0.0000,  0.0000,  0.0000)
  34 Ir     4.118986    7.135062   17.195698    ( 0.0000,  0.0000,  0.0000)
  35 Ir     6.864977    7.135062   17.195698    ( 0.0000,  0.0000,  0.0000)

Unit cell:
           periodic     x           y           z      points  spacing
  1. axis:    yes    8.237972    0.000000    0.000000    45     0.1831
  2. axis:    yes    0.000000    9.512391    0.000000    50     0.1902
  3. axis:    no     0.000000    0.000000   30.000000   160     0.1875

  Lengths:   8.237972   9.512391  30.000000
  Angles:   90.000000  90.000000  90.000000

Effective grid spacing dv^(1/3) = 0.1869

     iter     time        total  log10-change:
                         energy   eigst   dens
iter:   1 22:37:40 -11716.659832   -1.57
iter:   2 22:37:58 -11715.666379   -2.84  -1.89
iter:   3 22:38:17 -11715.186737   -3.04  -2.07
iter:   4 22:38:35 -11714.906597   -2.70  -2.20
iter:   5 22:38:53 -11714.824149   -3.22  -2.47
iter:   6 22:39:12 -11714.787292c  -3.07  -2.68
iter:   7 22:39:30 -11714.787727c  -4.37  -3.10
iter:   8 22:39:48 -11714.785996c  -4.27  -3.12
iter:   9 22:40:07 -11714.784300c  -4.52  -3.26
iter:  10 22:40:25 -11714.784155c  -5.19  -3.44
iter:  11 22:40:43 -11714.784318c  -5.35  -3.47
iter:  12 22:41:01 -11714.784109c  -4.85  -3.44
iter:  13 22:41:20 -11714.784039c  -5.71  -3.89
iter:  14 22:41:38 -11714.783867c  -5.63  -3.95
iter:  15 22:41:56 -11714.783851c  -6.33  -4.07c
iter:  16 22:42:15 -11714.783853c  -6.02  -4.07c
iter:  17 22:42:33 -11714.783815c  -6.30  -4.19c
iter:  18 22:42:51 -11714.783824c  -6.59  -4.24c
iter:  19 22:43:10 -11714.783831c  -7.07  -4.21c
iter:  20 22:43:28 -11714.783829c  -7.03  -4.27c
iter:  21 22:43:46 -11714.783801c  -6.83  -4.34c
iter:  22 22:44:05 -11714.783796c  -7.13  -4.44c
iter:  23 22:44:23 -11714.783798c  -7.47c -4.63c

Converged after 23 iterations.

Dipole moment: (0.000000, -0.489001, -0.000802) |e|*Ang

Energy contributions relative to reference atoms: (reference = -17441454.576081)

Kinetic:       +1075.944079
Potential:     -1027.766277
External:        +0.000000
XC:            -11754.341218
Entropy (-ST):   -1.678054
Local:           -7.781355
SIC:             +0.000000
--------------------------
Free energy:   -11715.622826
Extrapolated:  -11714.783798

Showing only first 2 kpts
 Kpt  Band  Eigenvalues  Occupancy
  0   268     -1.25544    1.05941
  0   269     -1.23407    0.95266
  0   270     -1.19120    0.74410
  0   271     -1.13468    0.50376

  1   268     -1.34812    1.47990
  1   269     -1.33244    1.41736
  1   270     -1.25929    1.07855
  1   271     -1.25460    1.05523


Fermi level: -1.24354

No gap
No difference between direct/indirect transitions

Forces in eV/Ang:
  0 Ir    0.00000   -0.00715    0.42988
  1 Ir    0.00000   -0.00715    0.42988
  2 Ir   -0.00000   -0.00715    0.42988
  3 Ir    0.00000   -0.00755    0.43020
  4 Ir    0.00000   -0.00755    0.43019
  5 Ir   -0.00000   -0.00755    0.43019
  6 Ir    0.00000   -0.00716    0.42989
  7 Ir    0.00000   -0.00716    0.42989
  8 Ir   -0.00000   -0.00716    0.42989
  9 Ir    0.00000   -0.00754    0.43021
 10 Ir    0.00000   -0.00754    0.43021
 11 Ir   -0.00000   -0.00754    0.43021
 12 Ir    0.00000    0.00316   -0.37409
 13 Ir    0.00000    0.00316   -0.37409
 14 Ir   -0.00000    0.00316   -0.37409
 15 Ir    0.00000    0.00279   -0.37399
 16 Ir    0.00000    0.00279   -0.37399
 17 Ir   -0.00000    0.00279   -0.37399
 18 Ir    0.00000    0.00316   -0.37407
 19 Ir    0.00000    0.00316   -0.37407
 20 Ir   -0.00000    0.00316   -0.37407
 21 Ir    0.00000    0.00279   -0.37398
 22 Ir    0.00000    0.00279   -0.37398
 23 Ir   -0.00000    0.00279   -0.37398
 24 Ir    0.00000    0.00426   -0.05699
 25 Ir    0.00000    0.00426   -0.05698
 26 Ir   -0.00000    0.00426   -0.05698
 27 Ir   -0.00000    0.00449   -0.05632
 28 Ir    0.00000    0.00449   -0.05633
 29 Ir    0.00000    0.00449   -0.05632
 30 Ir    0.00000    0.00427   -0.05699
 31 Ir    0.00000    0.00427   -0.05698
 32 Ir   -0.00000    0.00427   -0.05698
 33 Ir   -0.00000    0.00449   -0.05631
 34 Ir    0.00000    0.00449   -0.05632
 35 Ir    0.00000    0.00449   -0.05631

System changes: positions 

Initializing position-dependent things.

Density initialized from wave functions
       .-------------------.  
      /|                   |  
     / |                   |  
    /  |                   |  
   /   |                   |  
  /    |                   |  
 *     |                   |  
 |     |                   |  
 |     |                   |  
 |     |                   |  
 |     |                   |  
 |     |                   |  
 |     |                   |  
 |     |                   |  
 |     |                   |  
 |     |                   |  
 |     |                   |  
 |     | Ir     Ir    Ir   |  
 |     |                   |  
 |  Ir |  IIr   IIr    Ir  |  
 |    Ir     Ir    Ir      |  
 |   Ir|    Ir    Ir       |  
 Ir   IIIr   IIr   IIr     |  
 |     |                   |  
 |Ir   |IIr   IIr    Ir    |  
 | Ir  |  Ir    Ir         |  
 |     |                   |  
 |   Ir|   Ir     Ir       |  
 |     |                   |  
 |     |                   |  
 |     |                   |  
 |     |                   |  
 |     |                   |  
 |     |                   |  
 |     |                   |  
 |     |                   |  
 |     |                   |  
 |     .-------------------.  
 |    /                   /   
 |   /                   /    
 |  /                   /     
 | /                   /      
 |/                   /       
 *-------------------*        

Positions:
   0 Ir     1.372995    0.792699   12.757908    ( 0.0000,  0.0000,  0.0000)
   1 Ir     4.118986    0.792699   12.757908    ( 0.0000,  0.0000,  0.0000)
   2 Ir     6.864977    0.792699   12.757908    ( 0.0000,  0.0000,  0.0000)
   3 Ir     0.000000    3.170797   12.757908    ( 0.0000,  0.0000,  0.0000)
   4 Ir     2.745991    3.170797   12.757908    ( 0.0000,  0.0000,  0.0000)
   5 Ir     5.491981    3.170797   12.757908    ( 0.0000,  0.0000,  0.0000)
   6 Ir     1.372995    5.548895   12.757908    ( 0.0000,  0.0000,  0.0000)
   7 Ir     4.118986    5.548895   12.757908    ( 0.0000,  0.0000,  0.0000)
   8 Ir     6.864977    5.548895   12.757908    ( 0.0000,  0.0000,  0.0000)
   9 Ir     0.000000    7.926992   12.757908    ( 0.0000,  0.0000,  0.0000)
  10 Ir     2.745991    7.926992   12.757908    ( 0.0000,  0.0000,  0.0000)
  11 Ir     5.491981    7.926992   12.757908    ( 0.0000,  0.0000,  0.0000)
  12 Ir     0.000000    1.585398   15.000000    ( 0.0000,  0.0000,  0.0000)
  13 Ir     2.745991    1.585398   15.000000    ( 0.0000,  0.0000,  0.0000)
  14 Ir     5.491981    1.585398   15.000000    ( 0.0000,  0.0000,  0.0000)
  15 Ir     1.372995    3.963496   15.000000    ( 0.0000,  0.0000,  0.0000)
  16 Ir     4.118986    3.963496   15.000000    ( 0.0000,  0.0000,  0.0000)
  17 Ir     6.864977    3.963496   15.000000    ( 0.0000,  0.0000,  0.0000)
  18 Ir     0.000000    6.341594   15.000000    ( 0.0000,  0.0000,  0.0000)
  19 Ir     2.745991    6.341594   15.000000    ( 0.0000,  0.0000,  0.0000)
  20 Ir     5.491981    6.341594   15.000000    ( 0.0000,  0.0000,  0.0000)
  21 Ir     1.372995    8.719691   15.000000    ( 0.0000,  0.0000,  0.0000)
  22 Ir     4.118986    8.719691   15.000000    ( 0.0000,  0.0000,  0.0000)
  23 Ir     6.864977    8.719691   15.000000    ( 0.0000,  0.0000,  0.0000)
  24 Ir     0.000000    0.000948   17.189241    ( 0.0000,  0.0000,  0.0000)
  25 Ir     2.745991    0.000948   17.189241    ( 0.0000,  0.0000,  0.0000)
  26 Ir     5.491981    0.000948   17.189241    ( 0.0000,  0.0000,  0.0000)
  27 Ir     1.372995    2.379034   17.189224    ( 0.0000,  0.0000,  0.0000)
  28 Ir     4.118986    2.379034   17.189224    ( 0.0000,  0.0000,  0.0000)
  29 Ir     6.864977    2.379034   17.189224    ( 0.0000,  0.0000,  0.0000)
  30 Ir    -0.000000    4.757144   17.189241    ( 0.0000,  0.0000,  0.0000)
  31 Ir     2.745991    4.757144   17.189241    ( 0.0000,  0.0000,  0.0000)
  32 Ir     5.491981    4.757144   17.189241    ( 0.0000,  0.0000,  0.0000)
  33 Ir     1.372995    7.135229   17.189225    ( 0.0000,  0.0000,  0.0000)
  34 Ir     4.118986    7.135229   17.189225    ( 0.0000,  0.0000,  0.0000)
  35 Ir     6.864977    7.135229   17.189225    ( 0.0000,  0.0000,  0.0000)

Unit cell:
           periodic     x           y           z      points  spacing
  1. axis:    yes    8.237972    0.000000    0.000000    45     0.1831
  2. axis:    yes    0.000000    9.512391    0.000000    50     0.1902
  3. axis:    no     0.000000    0.000000   30.000000   160     0.1875

  Lengths:   8.237972   9.512391  30.000000
  Angles:   90.000000  90.000000  90.000000

Effective grid spacing dv^(1/3) = 0.1869

     iter     time        total  log10-change:
                         energy   eigst   dens
iter:   1 22:44:49 -11714.842049   -3.11
iter:   2 22:45:07 -11714.814918   -4.47  -2.67
iter:   3 22:45:25 -11714.797470c  -4.31  -2.83
iter:   4 22:45:44 -11714.792218c  -4.38  -3.04
iter:   5 22:46:02 -11714.790104c  -4.79  -3.25
iter:   6 22:46:20 -11714.789229c  -4.59  -3.47
iter:   7 22:46:39 -11714.789192c  -5.94  -3.86
iter:   8 22:46:57 -11714.789107c  -5.75  -3.93
iter:   9 22:47:15 -11714.789076c  -5.83  -3.98
iter:  10 22:47:34 -11714.789060c  -6.59  -4.24c
iter:  11 22:47:52 -11714.789062c  -6.97  -4.29c
iter:  12 22:48:10 -11714.789048c  -7.20  -4.28c
iter:  13 22:48:29 -11714.789060c  -6.66  -4.33c
iter:  14 22:48:47 -11714.789053c  -7.63c -4.48c

Converged after 14 iterations.

Dipole moment: (0.000000, -0.520670, 0.001373) |e|*Ang

Energy contributions relative to reference atoms: (reference = -17441454.576081)

Kinetic:       +1080.338165
Potential:     -1031.490130
External:        +0.000000
XC:            -11755.016383
Entropy (-ST):   -1.670844
Local:           -7.785284
SIC:             +0.000000
--------------------------
Free energy:   -11715.624475
Extrapolated:  -11714.789053

Showing only first 2 kpts
 Kpt  Band  Eigenvalues  Occupancy
  0   268     -1.25099    1.05212
  0   269     -1.22929    0.94369
  0   270     -1.18700    0.73843
  0   271     -1.12987    0.49691

  1   268     -1.34473    1.47834
  1   269     -1.32805    1.41153
  1   270     -1.25717    1.08285
  1   271     -1.25692    1.08163


Fermi level: -1.24056

No gap
No difference between direct/indirect transitions

Forces in eV/Ang:
  0 Ir    0.00000   -0.00709    0.41345
  1 Ir    0.00000   -0.00709    0.41344
  2 Ir   -0.00000   -0.00709    0.41345
  3 Ir    0.00000   -0.00741    0.41543
  4 Ir    0.00000   -0.00742    0.41543
  5 Ir   -0.00000   -0.00742    0.41543
  6 Ir    0.00000   -0.00707    0.41343
  7 Ir    0.00000   -0.00707    0.41342
  8 Ir   -0.00000   -0.00707    0.41343
  9 Ir    0.00000   -0.00743    0.41541
 10 Ir    0.00000   -0.00743    0.41542
 11 Ir   -0.00000   -0.00743    0.41542
 12 Ir    0.00000    0.00383   -0.43603
 13 Ir    0.00000    0.00382   -0.43603
 14 Ir   -0.00000    0.00382   -0.43603
 15 Ir    0.00001    0.00329   -0.43605
 16 Ir    0.00000    0.00329   -0.43605
 17 Ir   -0.00001    0.00329   -0.43605
 18 Ir    0.00000    0.00384   -0.43607
 19 Ir    0.00000    0.00383   -0.43607
 20 Ir   -0.00000    0.00383   -0.43607
 21 Ir    0.00001    0.00329   -0.43606
 22 Ir    0.00000    0.00329   -0.43606
 23 Ir   -0.00001    0.00329   -0.43606
 24 Ir    0.00000    0.00346    0.02401
 25 Ir    0.00001    0.00346    0.02404
 26 Ir   -0.00001    0.00346    0.02404
 27 Ir    0.00001    0.00369    0.02665
 28 Ir    0.00000    0.00369    0.02662
 29 Ir   -0.00001    0.00369    0.02665
 30 Ir    0.00000    0.00344    0.02401
 31 Ir    0.00001    0.00343    0.02404
 32 Ir   -0.00001    0.00343    0.02404
 33 Ir    0.00001    0.00370    0.02661
 34 Ir    0.00000    0.00370    0.02659
 35 Ir   -0.00001    0.00370    0.02661

Timing:                                      incl.     excl.
-------------------------------------------------------------------
Density initialized from wave functions:     3.897     3.743   0.2% |
 Symmetrize density:                         0.155     0.155   0.0% |
Forces:                                     19.803    19.803   1.2% |
Hamiltonian:                                22.748     0.032   0.0% |
 Atomic:                                     0.491     0.002   0.0% |
  XC Correction:                             0.489     0.489   0.0% |
 Calculate atomic Hamiltonians:              1.766     1.766   0.1% |
 Communicate:                                0.514     0.514   0.0% |
 Initialize Hamiltonian:                     0.001     0.001   0.0% |
 Poisson:                                    0.012     0.012   0.0% |
 XC 3D grid:                                19.932     3.561   0.2% |
  VdW-DF integral:                          16.370     0.563   0.0% |
   Convolution:                              1.373     1.373   0.1% |
   FFT:                                      0.424     0.424   0.0% |
   gather:                                   3.714     3.714   0.2% |
   hmm1:                                     0.399     0.399   0.0% |
   hmm2:                                     0.846     0.846   0.1% |
   iFFT:                                     0.456     0.456   0.0% |
   potential:                                4.765     0.051   0.0% |
    collect:                                 0.355     0.355   0.0% |
    p1:                                      2.332     2.332   0.1% |
    p2:                                      1.206     1.206   0.1% |
    sum:                                     0.821     0.821   0.0% |
   splines:                                  3.828     3.828   0.2% |
LCAO initialization:                        29.721     0.073   0.0% |
 LCAO eigensolver:                           3.899     0.001   0.0% |
  Calculate projections:                     0.000     0.000   0.0% |
  DenseAtomicCorrection:                     0.000     0.000   0.0% |
  Distribute overlap matrix:                 3.737     3.737   0.2% |
  Orbital Layouts:                           0.159     0.159   0.0% |
  Potential matrix:                          0.000     0.000   0.0% |
  Sum over cells:                            0.002     0.002   0.0% |
 LCAO to grid:                              25.011    25.011   1.5% ||
 Set positions (LCAO WFS):                   0.737     0.654   0.0% |
  Basic WFS set positions:                   0.002     0.002   0.0% |
  Basis functions set positions:             0.000     0.000   0.0% |
  P tci:                                     0.000     0.000   0.0% |
  ST tci:                                    0.061     0.061   0.0% |
  mktci:                                     0.021     0.021   0.0% |
PWDescriptor:                                0.663     0.663   0.0% |
Redistribute:                                0.002     0.002   0.0% |
SCF-cycle:                                1575.798     0.928   0.1% |
 Davidson:                                1074.957   216.141  13.0% |----|
  Apply H:                                 105.555   103.203   6.2% |-|
   HMM T:                                    2.352     2.352   0.1% |
  Subspace diag:                           185.245     0.010   0.0% |
   calc_h_matrix:                          132.412    28.797   1.7% ||
    Apply H:                               103.614   101.212   6.1% |-|
     HMM T:                                  2.402     2.402   0.1% |
   diagonalize:                              6.032     6.032   0.4% |
   rotate_psi:                              46.791    46.791   2.8% ||
  calc. matrices:                          393.041   186.919  11.2% |---|
   Apply H:                                206.122   201.647  12.1% |----|
    HMM T:                                   4.475     4.475   0.3% |
  diagonalize:                              85.696    85.696   5.2% |-|
  rotate_psi:                               89.281    89.281   5.4% |-|
 Density:                                  107.580     0.002   0.0% |
  Atomic density matrices:                   0.480     0.480   0.0% |
  Mix:                                      48.802    48.802   2.9% ||
  Multipole moments:                         0.041     0.041   0.0% |
  Pseudo density:                           58.255    53.974   3.2% ||
   Symmetrize density:                       4.281     4.281   0.3% |
 Hamiltonian:                              388.247     0.687   0.0% |
  Atomic:                                   10.184     0.051   0.0% |
   XC Correction:                           10.134    10.134   0.6% |
  Calculate atomic Hamiltonians:            36.368    36.368   2.2% ||
  Communicate:                              10.825    10.825   0.7% |
  Poisson:                                   0.271     0.271   0.0% |
  XC 3D grid:                              329.911    73.643   4.4% |-|
   VdW-DF integral:                        256.268    11.750   0.7% |
    Convolution:                            28.481    28.481   1.7% ||
    FFT:                                     9.134     9.134   0.5% |
    gather:                                 71.917    71.917   4.3% |-|
    hmm1:                                    8.465     8.465   0.5% |
    hmm2:                                   18.286    18.286   1.1% |
    iFFT:                                    9.281     9.281   0.6% |
    potential:                              98.954     1.072   0.1% |
     collect:                                7.415     7.415   0.4% |
     p1:                                    47.455    47.455   2.9% ||
     p2:                                    23.623    23.623   1.4% ||
     sum:                                   19.390    19.390   1.2% |
    splines:                                 0.000     0.000   0.0% |
 Orthonormalize:                             4.086     0.001   0.0% |
  calc_s_matrix:                             0.646     0.646   0.0% |
  inverse-cholesky:                          0.150     0.150   0.0% |
  projections:                               2.211     2.211   0.1% |
  rotate_psi_s:                              1.078     1.078   0.1% |
Set symmetry:                                0.001     0.001   0.0% |
Other:                                      10.387    10.387   0.6% |
-------------------------------------------------------------------
Total:                                              1663.021 100.0%

Memory usage: 3.45 GiB
Date: Wed Apr 23 22:48:52 2025
