
  ___ ___ ___ _ _ _  
 |   |   |_  | | | | 
 | | | | | . | | | | 
 |__ |  _|___|_____|  25.1.1b1
 |___|_|             

User:   dmapa@x138.nifl.fysik.dtu.dk
Date:   Mon Apr 21 21:50:20 2025
Arch:   x86_64
Pid:    397549
CWD:    /home/cat/dmapa/gpaw/dissads/tree/surfaces/BEEF-Al/min_surf/relax
Python: 3.11.3
gpaw:   /home/cat/dmapa/bin/venv-asrlib/gpaw/gpaw (55eb60cdf0)
_gpaw:  /home/cat/dmapa/bin/venv-asrlib/gpaw/build/lib.linux-x86_64-broadwell_el8-cpython-311/
        _gpaw.cpython-311-x86_64-linux-gnu.so (55eb60cdf0)
ase:    /home/cat/dmapa/bin/venv-asrlib/ase/ase (version 3.26.0b1-f4168b42a5)
numpy:  /home/modules/software/SciPy-bundle/2023.07-gfbf-2023a/lib/python3.11/site-packages/numpy (version 1.25.1)
scipy:  /home/modules/software/SciPy-bundle/2023.07-gfbf-2023a/lib/python3.11/site-packages/scipy (version 1.11.1)
libxc:  6.2.2
units:  Angstrom and eV
cores: 24
OpenMP: False
OMP_NUM_THREADS: 1

Input parameters:
  kpts: {size: [4, 3, 1]}
  mixer: {backend: pulay,
          beta: 0.02,
          method: separate,
          nmaxold: 5,
          weight: 50.0}
  mode: {ecut: 500,
         name: pw}
  spinpol: False
  xc: BEEF-vdW

System changes: positions, numbers, cell, pbc, initial_charges, initial_magmoms 

Initialize ...

species:
  Al:
    name: Aluminium
    id: 0292cae29f5d6237e50f6abdd43a7bdd
    Z: 13.0
    valence: 3
    core: 10
    charge: 0.0
    file: /home/modules/software/GPAW-setups/24.11.0/Al.PBE.gz
    compensation charges: {type: gauss,
                           rc: 0.34,
                           lmax: 2}
    cutoffs: {filter: 1.91,
              core: 2.36}
    projectors:
      #              energy  rcut
      - 3s(2.00)    -7.753   1.085
      - 3p(1.00)    -2.712   1.085
      -  s          19.459   1.085
      -  p          24.499   1.085
      -  d           0.000   1.085
  
    # Using partial waves for Al as LCAO basis

Reference energy: -237723.237536  # eV

Spin-paired calculation

Convergence criteria:
 Maximum [total energy] change in last 3 cyles: 0.0005 eV / valence electron
 Maximum integral of absolute [dens]ity change: 0.0001 electrons / valence electron
 Maximum integral of absolute [eigenst]ate change: 4e-08 eV^2 / valence electron
 Maximum number of scf [iter]ations: 333
 (Square brackets indicate name in SCF output, whereas a 'c' in
 the SCF output indicates the quantity has converged.)

Symmetries present (total): 2

  ( 1  0  0)  (-1  0  0)
  ( 0  1  0)  ( 0  1  0)
  ( 0  0  1)  ( 0  0  1)

12 k-points: 4 x 3 x 1 Monkhorst-Pack grid
4 k-points in the irreducible part of the Brillouin zone
       k-points in crystal coordinates                weights
   0:     0.12500000    0.00000000    0.00000000          2/12
   1:     0.12500000    0.33333333    0.00000000          4/12
   2:     0.37500000    0.00000000    0.00000000          2/12
   3:     0.37500000    0.33333333    0.00000000          4/12

Wave functions: Plane wave expansion
  Cutoff energy: 500.000 eV
  Number of coefficients (min, max): 64149, 64272
  Pulay-stress correction: 0.000000 eV/Ang^3 (de/decut=0.000000)
  Using FFTW library
  ScaLapack parameters: grid=1x1, blocksize=None
  Wavefunction extrapolation:
    Improved wavefunction reuse through dual PAW basis 

Occupation numbers: Fermi-Dirac:
  width: 0.1000  # eV
 

Eigensolver
   Davidson(niter=2) 

Densities:
  Coarse grid: 45*54*160 grid
  Fine grid: 90*108*320 grid
  Total Charge: 0.000000 

Density mixing:
  Method: separate
  Backend: pulay
  Linear mixing parameter: 0.02
  old densities: 5
  Damping of long wavelength oscillations: 50 

Hamiltonian:
  XC and Coulomb potentials evaluated on a 90*108*320 grid
  Using the BEEF-vdW Exchange-Correlation functional
  External potential:
    NoExternalPotential
 

XC parameters: BEEF-vdW with 2 nearest neighbor stencil

Memory estimate:
  Process memory now: 331.87 MiB
  Calculator: 78.42 MiB
    Density: 29.23 MiB
      Arrays: 12.90 MiB
      Localized functions: 11.32 MiB
      Mixer: 5.01 MiB
    Hamiltonian: 8.67 MiB
      Arrays: 8.44 MiB
      XC: 0.00 MiB
      Poisson: 0.00 MiB
      vbar: 0.23 MiB
    Wavefunctions: 40.53 MiB
      Arrays psit_nG: 11.28 MiB
      Eigensolver: 12.82 MiB
      Projections: 0.08 MiB
      Projectors: 1.14 MiB
      PW-descriptor: 15.20 MiB

Total number of cores used: 24
Parallelization over k-points: 4
Domain decomposition: 1 x 2 x 3

Number of atoms: 36
Number of atomic orbitals: 144
Number of bands in calculation: 69
Number of valence electrons: 108
Bands to converge: occupied

... initialized

Initializing position-dependent things.

Density initialized from atomic densities
Creating initial wave functions:
  69 bands from LCAO basis set

       .--------------------.  
      /|                    |  
     / |                    |  
    /  |                    |  
   /   |                    |  
  /    |                    |  
 *     |                    |  
 |     |                    |  
 |     |                    |  
 |     |                    |  
 |     |                    |  
 |     |                    |  
 |     |                    |  
 |     |                    |  
 |     |                    |  
 |     |                    |  
 |     |                    |  
 |     | Al     Al     Al   |  
 |     |                    |  
 |  Al |  AAl    AAl    Al  |  
 |    Al     Al     Al      |  
 |   Al|    Al     Al       |  
 Al   AAAl   AAAl   AAl     |  
 |     |                    |  
 |Al   |AAl    AAl    Al    |  
 | Al  |  Al     Al         |  
 |     |                    |  
 |   Al|    Al     Al       |  
 |     |                    |  
 |     |                    |  
 |     |                    |  
 |     |                    |  
 |     |                    |  
 |     |                    |  
 |     |                    |  
 |     |                    |  
 |     |                    |  
 |     .--------------------.  
 |    /                    /   
 |   /                    /    
 |  /                    /     
 | /                    /      
 |/                    /       
 *--------------------*        

Positions:
   0 Al     1.424376    0.822364   12.674004    ( 0.0000,  0.0000,  0.0000)
   1 Al     4.273128    0.822364   12.674004    ( 0.0000,  0.0000,  0.0000)
   2 Al     7.121880    0.822364   12.674004    ( 0.0000,  0.0000,  0.0000)
   3 Al     0.000000    3.289456   12.674004    ( 0.0000,  0.0000,  0.0000)
   4 Al     2.848752    3.289456   12.674004    ( 0.0000,  0.0000,  0.0000)
   5 Al     5.697504    3.289456   12.674004    ( 0.0000,  0.0000,  0.0000)
   6 Al     1.424376    5.756547   12.674004    ( 0.0000,  0.0000,  0.0000)
   7 Al     4.273128    5.756547   12.674004    ( 0.0000,  0.0000,  0.0000)
   8 Al     7.121880    5.756547   12.674004    ( 0.0000,  0.0000,  0.0000)
   9 Al     0.000000    8.223639   12.674004    ( 0.0000,  0.0000,  0.0000)
  10 Al     2.848752    8.223639   12.674004    ( 0.0000,  0.0000,  0.0000)
  11 Al     5.697504    8.223639   12.674004    ( 0.0000,  0.0000,  0.0000)
  12 Al     0.000000    1.644728   15.000000    ( 0.0000,  0.0000,  0.0000)
  13 Al     2.848752    1.644728   15.000000    ( 0.0000,  0.0000,  0.0000)
  14 Al     5.697504    1.644728   15.000000    ( 0.0000,  0.0000,  0.0000)
  15 Al     1.424376    4.111820   15.000000    ( 0.0000,  0.0000,  0.0000)
  16 Al     4.273128    4.111820   15.000000    ( 0.0000,  0.0000,  0.0000)
  17 Al     7.121880    4.111820   15.000000    ( 0.0000,  0.0000,  0.0000)
  18 Al     0.000000    6.578911   15.000000    ( 0.0000,  0.0000,  0.0000)
  19 Al     2.848752    6.578911   15.000000    ( 0.0000,  0.0000,  0.0000)
  20 Al     5.697504    6.578911   15.000000    ( 0.0000,  0.0000,  0.0000)
  21 Al     1.424376    9.046003   15.000000    ( 0.0000,  0.0000,  0.0000)
  22 Al     4.273128    9.046003   15.000000    ( 0.0000,  0.0000,  0.0000)
  23 Al     7.121880    9.046003   15.000000    ( 0.0000,  0.0000,  0.0000)
  24 Al     0.000000    0.000000   17.325996    ( 0.0000,  0.0000,  0.0000)
  25 Al     2.848752    0.000000   17.325996    ( 0.0000,  0.0000,  0.0000)
  26 Al     5.697504    0.000000   17.325996    ( 0.0000,  0.0000,  0.0000)
  27 Al     1.424376    2.467092   17.325996    ( 0.0000,  0.0000,  0.0000)
  28 Al     4.273128    2.467092   17.325996    ( 0.0000,  0.0000,  0.0000)
  29 Al     7.121880    2.467092   17.325996    ( 0.0000,  0.0000,  0.0000)
  30 Al     0.000000    4.934183   17.325996    ( 0.0000,  0.0000,  0.0000)
  31 Al     2.848752    4.934183   17.325996    ( 0.0000,  0.0000,  0.0000)
  32 Al     5.697504    4.934183   17.325996    ( 0.0000,  0.0000,  0.0000)
  33 Al     1.424376    7.401275   17.325996    ( 0.0000,  0.0000,  0.0000)
  34 Al     4.273128    7.401275   17.325996    ( 0.0000,  0.0000,  0.0000)
  35 Al     7.121880    7.401275   17.325996    ( 0.0000,  0.0000,  0.0000)

Unit cell:
           periodic     x           y           z      points  spacing
  1. axis:    yes    8.546256    0.000000    0.000000    45     0.1899
  2. axis:    yes    0.000000    9.868367    0.000000    54     0.1827
  3. axis:    no     0.000000    0.000000   30.000000   160     0.1875

  Lengths:   8.546256   9.868367  30.000000
  Angles:   90.000000  90.000000  90.000000

Effective grid spacing dv^(1/3) = 0.1867

     iter     time        total  log10-change:
                         energy   eigst   dens
iter:   1 21:50:42  -999.523614
iter:   2 21:50:49  -999.717334   -1.12  -0.83
iter:   3 21:50:57 -1002.784832   -1.41  -0.83
iter:   4 21:51:05  -998.804583   -1.55  -0.73
iter:   5 21:51:13  -998.246830   -1.54  -0.88
iter:   6 21:51:21  -998.910765   -1.94  -1.48
iter:   7 21:51:28  -998.388980   -2.31  -1.34
iter:   8 21:51:36  -998.716766   -2.26  -1.45
iter:   9 21:51:44  -998.149846   -2.22  -1.37
iter:  10 21:51:52  -998.138216   -2.78  -1.89
iter:  11 21:51:59  -998.151611c  -2.95  -2.06
iter:  12 21:52:07  -998.137854c  -2.95  -2.02
iter:  13 21:52:15  -998.137755c  -3.24  -2.27
iter:  14 21:52:23  -998.144208c  -3.33  -2.25
iter:  15 21:52:31  -998.136360c  -3.40  -2.19
iter:  16 21:52:38  -998.142803c  -3.29  -2.30
iter:  17 21:52:46  -998.143081c  -3.60  -2.15
iter:  18 21:52:54  -998.135777c  -3.55  -2.14
iter:  19 21:53:02  -998.136544c  -3.76  -2.40
iter:  20 21:53:09  -998.133945c  -3.88  -2.42
iter:  21 21:53:17  -998.131138c  -3.95  -2.48
iter:  22 21:53:25  -998.133435c  -3.95  -2.51
iter:  23 21:53:33  -998.129850c  -4.02  -2.45
iter:  24 21:53:40  -998.129792c  -4.25  -2.57
iter:  25 21:53:48  -998.129554c  -4.35  -2.59
iter:  26 21:53:56  -998.137223c  -3.86  -2.61
iter:  27 21:54:04  -998.129897c  -3.83  -2.31
iter:  28 21:54:11  -998.129369c  -4.51  -2.75
iter:  29 21:54:19  -998.132161c  -4.11  -2.83
iter:  30 21:54:27  -998.128583c  -4.31  -2.49
iter:  31 21:54:35  -998.128492c  -4.64  -3.03
iter:  32 21:54:42  -998.128530c  -4.76  -3.21
iter:  33 21:54:50  -998.128587c  -4.79  -3.22
iter:  34 21:54:58  -998.128535c  -4.96  -3.37
iter:  35 21:55:06  -998.128556c  -5.04  -3.49
iter:  36 21:55:14  -998.128537c  -5.12  -3.42
iter:  37 21:55:21  -998.128535c  -5.19  -3.50
iter:  38 21:55:29  -998.128538c  -5.27  -3.53
iter:  39 21:55:37  -998.128535c  -5.34  -3.55
iter:  40 21:55:45  -998.128517c  -5.40  -3.57
iter:  41 21:55:52  -998.128522c  -5.48  -3.56
iter:  42 21:56:00  -998.128531c  -5.56  -3.59
iter:  43 21:56:08  -998.128543c  -5.61  -3.62
iter:  44 21:56:16  -998.128620c  -5.60  -3.53
iter:  45 21:56:23  -998.128536c  -5.58  -3.24
iter:  46 21:56:31  -998.128538c  -5.84  -3.63
iter:  47 21:56:39  -998.128562c  -5.91  -3.66
iter:  48 21:56:47  -998.128540c  -5.99  -3.75
iter:  49 21:56:54  -998.128590c  -6.07  -3.74
iter:  50 21:57:02  -998.128325c  -6.15  -3.74
iter:  51 21:57:10  -998.125511c  -6.16  -3.75
iter:  52 21:57:18  -998.127904c  -6.28  -4.22c
iter:  53 21:57:26  -998.128361c  -6.37  -4.48c
iter:  54 21:57:33  -998.127657c  -6.46  -4.48c
iter:  55 21:57:41  -998.123687c  -6.53  -4.48c
iter:  56 21:57:49  -998.122817c  -6.61  -4.62c
iter:  57 21:57:57  -998.129123c  -6.67  -4.73c
iter:  58 21:58:04  -998.131498c  -6.75  -4.87c
iter:  59 21:58:12  -998.126670c  -6.84  -4.75c
iter:  60 21:58:20  -998.123952c  -6.91  -4.77c
iter:  61 21:58:28  -998.120728c  -6.97  -4.76c
iter:  62 21:58:35  -998.121526c  -7.04  -4.84c
iter:  63 21:58:43  -998.122263c  -7.11  -4.92c
iter:  64 21:58:51  -998.119592c  -7.19  -5.05c
iter:  65 21:58:59  -998.118009c  -7.26  -5.12c
iter:  66 21:59:06  -998.120062c  -7.33  -5.12c
iter:  67 21:59:14  -998.120549c  -7.40c -5.16c

Converged after 67 iterations.

Dipole moment: (-0.000000, -0.245509, -0.000000) |e|*Ang

Energy contributions relative to reference atoms: (reference = -237723.237536)

Kinetic:        +76.084353
Potential:      -25.247337
External:        +0.000000
XC:            -1048.705696
Entropy (-ST):   -0.534483
Local:           +0.015373
SIC:             +0.000000
--------------------------
Free energy:   -998.387791
Extrapolated:  -998.120549

Showing only first 2 kpts
 Kpt  Band  Eigenvalues  Occupancy
  0    52     -1.94615    1.98629
  0    53     -1.87503    1.97227
  0    54     -1.66641    1.79653
  0    55     -1.64283    1.74922

  1    52     -1.53005    1.38615
  1    53     -1.51617    1.32559
  1    54     -1.49840    1.24402
  1    55     -1.21609    0.17814


Fermi level: -1.44860

No gap
No difference between direct/indirect transitions

Forces in eV/Ang:
  0 Al    0.00000    0.00484   -0.07095
  1 Al    0.00000    0.00484   -0.07095
  2 Al   -0.00000    0.00484   -0.07095
  3 Al    0.00000    0.00477   -0.07097
  4 Al    0.00000    0.00477   -0.07097
  5 Al   -0.00000    0.00477   -0.07097
  6 Al    0.00000    0.00484   -0.07095
  7 Al    0.00000    0.00484   -0.07095
  8 Al   -0.00000    0.00484   -0.07095
  9 Al    0.00000    0.00477   -0.07097
 10 Al   -0.00000    0.00477   -0.07097
 11 Al    0.00000    0.00477   -0.07097
 12 Al    0.00000   -0.00000    0.00000
 13 Al   -0.00000    0.00000   -0.00000
 14 Al    0.00000    0.00000   -0.00000
 15 Al    0.00000   -0.00000    0.00000
 16 Al    0.00000    0.00000   -0.00000
 17 Al   -0.00000   -0.00000    0.00000
 18 Al    0.00000    0.00000   -0.00000
 19 Al    0.00000   -0.00000    0.00000
 20 Al   -0.00000   -0.00000    0.00000
 21 Al   -0.00000   -0.00000   -0.00000
 22 Al    0.00000    0.00000    0.00000
 23 Al    0.00000   -0.00000   -0.00000
 24 Al    0.00000   -0.00477    0.07097
 25 Al   -0.00000   -0.00477    0.07097
 26 Al    0.00000   -0.00477    0.07097
 27 Al   -0.00000   -0.00484    0.07095
 28 Al    0.00000   -0.00484    0.07095
 29 Al    0.00000   -0.00484    0.07095
 30 Al    0.00000   -0.00477    0.07097
 31 Al    0.00000   -0.00477    0.07097
 32 Al   -0.00000   -0.00477    0.07097
 33 Al    0.00000   -0.00484    0.07095
 34 Al    0.00000   -0.00484    0.07095
 35 Al   -0.00000   -0.00484    0.07095

System changes: positions 

Initializing position-dependent things.

Density initialized from wave functions
       .--------------------.  
      /|                    |  
     / |                    |  
    /  |                    |  
   /   |                    |  
  /    |                    |  
 *     |                    |  
 |     |                    |  
 |     |                    |  
 |     |                    |  
 |     |                    |  
 |     |                    |  
 |     |                    |  
 |     |                    |  
 |     |                    |  
 |     |                    |  
 |     Al     Al     Al     |  
 |     | Al     Al     Al   |  
 |     |                    |  
 |  Al |  AAl    AAl    Al  |  
 |    Al     Al     Al      |  
 |   Al|    Al     Al       |  
 |    AAl    AAl    AAl     |  
 |     |                    |  
 |Al   |AAl    AAl    Al    |  
 | Al  |  Al     Al         |  
 |     |                    |  
 |   Al|    Al     Al       |  
 |     |                    |  
 |     |                    |  
 |     |                    |  
 |     |                    |  
 |     |                    |  
 |     |                    |  
 |     |                    |  
 |     |                    |  
 |     |                    |  
 |     .--------------------.  
 |    /                    /   
 |   /                    /    
 |  /                    /     
 | /                    /      
 |/                    /       
 *--------------------*        

Positions:
   0 Al     1.424376    0.822364   12.674004    ( 0.0000,  0.0000,  0.0000)
   1 Al     4.273128    0.822364   12.674004    ( 0.0000,  0.0000,  0.0000)
   2 Al     7.121880    0.822364   12.674004    ( 0.0000,  0.0000,  0.0000)
   3 Al     0.000000    3.289456   12.674004    ( 0.0000,  0.0000,  0.0000)
   4 Al     2.848752    3.289456   12.674004    ( 0.0000,  0.0000,  0.0000)
   5 Al     5.697504    3.289456   12.674004    ( 0.0000,  0.0000,  0.0000)
   6 Al     1.424376    5.756547   12.674004    ( 0.0000,  0.0000,  0.0000)
   7 Al     4.273128    5.756547   12.674004    ( 0.0000,  0.0000,  0.0000)
   8 Al     7.121880    5.756547   12.674004    ( 0.0000,  0.0000,  0.0000)
   9 Al     0.000000    8.223639   12.674004    ( 0.0000,  0.0000,  0.0000)
  10 Al     2.848752    8.223639   12.674004    ( 0.0000,  0.0000,  0.0000)
  11 Al     5.697504    8.223639   12.674004    ( 0.0000,  0.0000,  0.0000)
  12 Al     0.000000    1.644728   15.000000    ( 0.0000,  0.0000,  0.0000)
  13 Al     2.848752    1.644728   15.000000    ( 0.0000,  0.0000,  0.0000)
  14 Al     5.697504    1.644728   15.000000    ( 0.0000,  0.0000,  0.0000)
  15 Al     1.424376    4.111820   15.000000    ( 0.0000,  0.0000,  0.0000)
  16 Al     4.273128    4.111820   15.000000    ( 0.0000,  0.0000,  0.0000)
  17 Al     7.121880    4.111820   15.000000    ( 0.0000,  0.0000,  0.0000)
  18 Al     0.000000    6.578911   15.000000    ( 0.0000,  0.0000,  0.0000)
  19 Al     2.848752    6.578911   15.000000    ( 0.0000,  0.0000,  0.0000)
  20 Al     5.697504    6.578911   15.000000    ( 0.0000,  0.0000,  0.0000)
  21 Al     1.424376    9.046003   15.000000    ( 0.0000,  0.0000,  0.0000)
  22 Al     4.273128    9.046003   15.000000    ( 0.0000,  0.0000,  0.0000)
  23 Al     7.121880    9.046003   15.000000    ( 0.0000,  0.0000,  0.0000)
  24 Al     0.000000   -0.000068   17.327010    ( 0.0000,  0.0000,  0.0000)
  25 Al     2.848752   -0.000068   17.327010    ( 0.0000,  0.0000,  0.0000)
  26 Al     5.697504   -0.000068   17.327010    ( 0.0000,  0.0000,  0.0000)
  27 Al     1.424376    2.467023   17.327010    ( 0.0000,  0.0000,  0.0000)
  28 Al     4.273128    2.467023   17.327010    ( 0.0000,  0.0000,  0.0000)
  29 Al     7.121880    2.467023   17.327010    ( 0.0000,  0.0000,  0.0000)
  30 Al     0.000000    4.934115   17.327010    ( 0.0000,  0.0000,  0.0000)
  31 Al     2.848752    4.934115   17.327010    ( 0.0000,  0.0000,  0.0000)
  32 Al     5.697504    4.934115   17.327010    ( 0.0000,  0.0000,  0.0000)
  33 Al     1.424376    7.401206   17.327010    ( 0.0000,  0.0000,  0.0000)
  34 Al     4.273128    7.401206   17.327010    ( 0.0000,  0.0000,  0.0000)
  35 Al     7.121880    7.401206   17.327010    ( 0.0000,  0.0000,  0.0000)

Unit cell:
           periodic     x           y           z      points  spacing
  1. axis:    yes    8.546256    0.000000    0.000000    45     0.1899
  2. axis:    yes    0.000000    9.868367    0.000000    54     0.1827
  3. axis:    no     0.000000    0.000000   30.000000   160     0.1875

  Lengths:   8.546256   9.868367  30.000000
  Angles:   90.000000  90.000000  90.000000

Effective grid spacing dv^(1/3) = 0.1867

     iter     time        total  log10-change:
                         energy   eigst   dens
iter:   1 21:59:27  -998.129546   -5.50
iter:   2 21:59:34  -998.129481   -6.66  -3.19
iter:   3 21:59:42  -998.129425c  -6.12  -3.28
iter:   4 21:59:50  -998.129435c  -6.23  -3.60
iter:   5 21:59:58  -998.129399c  -6.43  -3.46
iter:   6 22:00:06  -998.129409c  -6.59  -3.93
iter:   7 22:00:13  -998.129389c  -7.11  -3.73
iter:   8 22:00:21  -998.129388c  -7.35  -4.20c
iter:   9 22:00:29  -998.129387c  -7.78c -4.47c

Converged after 9 iterations.

Dipole moment: (-0.000000, -0.237223, -0.000266) |e|*Ang

Energy contributions relative to reference atoms: (reference = -237723.237536)

Kinetic:        +75.943209
Potential:      -25.152251
External:        +0.000000
XC:            -1048.663353
Entropy (-ST):   -0.534494
Local:           +0.010255
SIC:             +0.000000
--------------------------
Free energy:   -998.396634
Extrapolated:  -998.129387

Showing only first 2 kpts
 Kpt  Band  Eigenvalues  Occupancy
  0    52     -1.94593    1.98627
  0    53     -1.87584    1.97251
  0    54     -1.66610    1.79615
  0    55     -1.64367    1.75126

  1    52     -1.53064    1.38905
  1    53     -1.51564    1.32360
  1    54     -1.49822    1.24360
  1    55     -1.21687    0.17956


Fermi level: -1.44850

No gap
No difference between direct/indirect transitions

Forces in eV/Ang:
  0 Al   -0.00000    0.00477   -0.07078
  1 Al    0.00000    0.00477   -0.07078
  2 Al    0.00000    0.00477   -0.07078
  3 Al    0.00000    0.00477   -0.07078
  4 Al    0.00000    0.00477   -0.07078
  5 Al   -0.00000    0.00477   -0.07078
  6 Al    0.00000    0.00477   -0.07078
  7 Al    0.00000    0.00477   -0.07078
  8 Al   -0.00000    0.00477   -0.07078
  9 Al    0.00000    0.00477   -0.07078
 10 Al   -0.00000    0.00477   -0.07078
 11 Al    0.00000    0.00477   -0.07078
 12 Al    0.00000   -0.00003    0.00324
 13 Al    0.00000   -0.00003    0.00324
 14 Al   -0.00000   -0.00003    0.00324
 15 Al    0.00000   -0.00003    0.00324
 16 Al    0.00000   -0.00003    0.00324
 17 Al   -0.00000   -0.00003    0.00324
 18 Al    0.00000   -0.00003    0.00324
 19 Al   -0.00000   -0.00003    0.00324
 20 Al    0.00000   -0.00003    0.00324
 21 Al   -0.00000   -0.00003    0.00324
 22 Al    0.00000   -0.00003    0.00324
 23 Al    0.00000   -0.00003    0.00324
 24 Al    0.00000   -0.00474    0.06766
 25 Al    0.00000   -0.00474    0.06766
 26 Al   -0.00000   -0.00474    0.06766
 27 Al   -0.00000   -0.00473    0.06766
 28 Al    0.00000   -0.00473    0.06766
 29 Al    0.00000   -0.00473    0.06766
 30 Al    0.00000   -0.00474    0.06766
 31 Al   -0.00000   -0.00474    0.06766
 32 Al    0.00000   -0.00474    0.06766
 33 Al    0.00000   -0.00473    0.06766
 34 Al    0.00000   -0.00473    0.06766
 35 Al   -0.00000   -0.00473    0.06766

System changes: positions 

Initializing position-dependent things.

Density initialized from wave functions
       .--------------------.  
      /|                    |  
     / |                    |  
    /  |                    |  
   /   |                    |  
  /    |                    |  
 *     |                    |  
 |     |                    |  
 |     |                    |  
 |     |                    |  
 |     |                    |  
 |     |                    |  
 |     |                    |  
 |     |                    |  
 |     |                    |  
 |     |                    |  
 |     Al     Al     Al     |  
 |     | Al     Al     Al   |  
 |     |                    |  
 |  Al |  AAl    AAl    Al  |  
 |    Al     Al     Al      |  
 |   Al|    Al     Al       |  
 |    AAl    AAl    AAl     |  
 |     |                    |  
 |Al   |AAl    AAl    Al    |  
 | Al  |  Al     Al         |  
 |     |                    |  
 |   Al|    Al     Al       |  
 |     |                    |  
 |     |                    |  
 |     |                    |  
 |     |                    |  
 |     |                    |  
 |     |                    |  
 |     |                    |  
 |     |                    |  
 |     |                    |  
 |     .--------------------.  
 |    /                    /   
 |   /                    /    
 |  /                    /     
 | /                    /      
 |/                    /       
 *--------------------*        

Positions:
   0 Al     1.424376    0.822364   12.674004    ( 0.0000,  0.0000,  0.0000)
   1 Al     4.273128    0.822364   12.674004    ( 0.0000,  0.0000,  0.0000)
   2 Al     7.121880    0.822364   12.674004    ( 0.0000,  0.0000,  0.0000)
   3 Al     0.000000    3.289456   12.674004    ( 0.0000,  0.0000,  0.0000)
   4 Al     2.848752    3.289456   12.674004    ( 0.0000,  0.0000,  0.0000)
   5 Al     5.697504    3.289456   12.674004    ( 0.0000,  0.0000,  0.0000)
   6 Al     1.424376    5.756547   12.674004    ( 0.0000,  0.0000,  0.0000)
   7 Al     4.273128    5.756547   12.674004    ( 0.0000,  0.0000,  0.0000)
   8 Al     7.121880    5.756547   12.674004    ( 0.0000,  0.0000,  0.0000)
   9 Al     0.000000    8.223639   12.674004    ( 0.0000,  0.0000,  0.0000)
  10 Al     2.848752    8.223639   12.674004    ( 0.0000,  0.0000,  0.0000)
  11 Al     5.697504    8.223639   12.674004    ( 0.0000,  0.0000,  0.0000)
  12 Al     0.000000    1.644728   15.000000    ( 0.0000,  0.0000,  0.0000)
  13 Al     2.848752    1.644728   15.000000    ( 0.0000,  0.0000,  0.0000)
  14 Al     5.697504    1.644728   15.000000    ( 0.0000,  0.0000,  0.0000)
  15 Al     1.424376    4.111820   15.000000    ( 0.0000,  0.0000,  0.0000)
  16 Al     4.273128    4.111820   15.000000    ( 0.0000,  0.0000,  0.0000)
  17 Al     7.121880    4.111820   15.000000    ( 0.0000,  0.0000,  0.0000)
  18 Al     0.000000    6.578911   15.000000    ( 0.0000,  0.0000,  0.0000)
  19 Al     2.848752    6.578911   15.000000    ( 0.0000,  0.0000,  0.0000)
  20 Al     5.697504    6.578911   15.000000    ( 0.0000,  0.0000,  0.0000)
  21 Al     1.424376    9.046003   15.000000    ( 0.0000,  0.0000,  0.0000)
  22 Al     4.273128    9.046003   15.000000    ( 0.0000,  0.0000,  0.0000)
  23 Al     7.121880    9.046003   15.000000    ( 0.0000,  0.0000,  0.0000)
  24 Al     0.000000   -0.001529   17.347857    ( 0.0000,  0.0000,  0.0000)
  25 Al     2.848752   -0.001529   17.347857    ( 0.0000,  0.0000,  0.0000)
  26 Al     5.697504   -0.001529   17.347857    ( 0.0000,  0.0000,  0.0000)
  27 Al     1.424376    2.465564   17.347858    ( 0.0000,  0.0000,  0.0000)
  28 Al     4.273128    2.465564   17.347858    ( 0.0000,  0.0000,  0.0000)
  29 Al     7.121880    2.465564   17.347858    ( 0.0000,  0.0000,  0.0000)
  30 Al    -0.000000    4.932655   17.347857    ( 0.0000,  0.0000,  0.0000)
  31 Al     2.848752    4.932655   17.347857    ( 0.0000,  0.0000,  0.0000)
  32 Al     5.697504    4.932655   17.347857    ( 0.0000,  0.0000,  0.0000)
  33 Al     1.424376    7.399748   17.347858    ( 0.0000,  0.0000,  0.0000)
  34 Al     4.273128    7.399748   17.347858    ( 0.0000,  0.0000,  0.0000)
  35 Al     7.121880    7.399748   17.347858    ( 0.0000,  0.0000,  0.0000)

Unit cell:
           periodic     x           y           z      points  spacing
  1. axis:    yes    8.546256    0.000000    0.000000    45     0.1899
  2. axis:    yes    0.000000    9.868367    0.000000    54     0.1827
  3. axis:    no     0.000000    0.000000   30.000000   160     0.1875

  Lengths:   8.546256   9.868367  30.000000
  Angles:   90.000000  90.000000  90.000000

Effective grid spacing dv^(1/3) = 0.1867

     iter     time        total  log10-change:
                         energy   eigst   dens
iter:   1 22:00:41  -998.204055   -2.90
iter:   2 22:00:49  -998.177396   -4.10  -1.89
iter:   3 22:00:57  -998.152625c  -3.51  -1.98
iter:   4 22:01:05  -998.157400c  -3.60  -2.29
iter:   5 22:01:13  -998.139425c  -3.86  -2.14
iter:   6 22:01:20  -998.145296c  -3.94  -2.62
iter:   7 22:01:28  -998.137807c  -4.49  -2.40
iter:   8 22:01:36  -998.137437c  -4.95  -2.93
iter:   9 22:01:44  -998.137446c  -5.57  -3.16
iter:  10 22:01:52  -998.137442c  -5.83  -3.30
iter:  11 22:01:59  -998.137309c  -5.72  -3.29
iter:  12 22:02:07  -998.137312c  -6.64  -3.66
iter:  13 22:02:15  -998.137329c  -6.69  -3.67
iter:  14 22:02:23  -998.137332c  -6.37  -3.69
iter:  15 22:02:30  -998.137328c  -7.17  -3.75
iter:  16 22:02:38  -998.137342c  -6.66  -3.87
iter:  17 22:02:46  -998.137350c  -6.43  -3.82
iter:  18 22:02:54  -998.137343c  -7.48c -3.90
iter:  19 22:03:02  -998.137351c  -7.42c -4.09c

Converged after 19 iterations.

Dipole moment: (-0.000000, -0.061410, 0.008179) |e|*Ang

Energy contributions relative to reference atoms: (reference = -237723.237536)

Kinetic:        +72.484728
Potential:      -22.584885
External:        +0.000000
XC:            -1047.780759
Entropy (-ST):   -0.536462
Local:           +0.011795
SIC:             +0.000000
--------------------------
Free energy:   -998.405582
Extrapolated:  -998.137351

Showing only first 2 kpts
 Kpt  Band  Eigenvalues  Occupancy
  0    52     -1.93351    1.98583
  0    53     -1.88503    1.97709
  0    54     -1.65353    1.78996
  0    55     -1.65194    1.78694

  1    52     -1.53132    1.43027
  1    53     -1.48891    1.24324
  1    54     -1.48000    1.20089
  1    55     -1.21966    0.20020


Fermi level: -1.43927

No gap
No difference between direct/indirect transitions

Forces in eV/Ang:
  0 Al    0.00001    0.00422   -0.07753
  1 Al    0.00000    0.00419   -0.07754
  2 Al   -0.00001    0.00422   -0.07753
  3 Al    0.00000    0.00418   -0.07754
  4 Al   -0.00002    0.00416   -0.07754
  5 Al    0.00002    0.00416   -0.07754
  6 Al   -0.00001    0.00420   -0.07754
  7 Al    0.00000    0.00422   -0.07753
  8 Al    0.00001    0.00420   -0.07754
  9 Al    0.00000    0.00416   -0.07753
 10 Al    0.00002    0.00417   -0.07754
 11 Al   -0.00002    0.00417   -0.07754
 12 Al    0.00000   -0.00064    0.06853
 13 Al   -0.00000   -0.00063    0.06852
 14 Al    0.00000   -0.00063    0.06852
 15 Al    0.00000   -0.00063    0.06854
 16 Al    0.00000   -0.00063    0.06856
 17 Al   -0.00000   -0.00063    0.06854
 18 Al    0.00000   -0.00063    0.06852
 19 Al    0.00000   -0.00063    0.06853
 20 Al   -0.00000   -0.00063    0.06853
 21 Al   -0.00000   -0.00063    0.06855
 22 Al    0.00000   -0.00063    0.06853
 23 Al    0.00000   -0.00063    0.06855
 24 Al    0.00000   -0.00364    0.00040
 25 Al   -0.00002   -0.00363    0.00040
 26 Al    0.00002   -0.00363    0.00040
 27 Al    0.00001   -0.00362    0.00040
 28 Al    0.00000   -0.00360    0.00040
 29 Al   -0.00001   -0.00362    0.00040
 30 Al    0.00000   -0.00362    0.00040
 31 Al    0.00002   -0.00364    0.00040
 32 Al   -0.00002   -0.00364    0.00040
 33 Al   -0.00001   -0.00361    0.00040
 34 Al    0.00000   -0.00363    0.00040
 35 Al    0.00001   -0.00361    0.00040

Timing:                                      incl.     excl.
-------------------------------------------------------------------
Density initialized from wave functions:     1.676     1.565   0.2% |
 Symmetrize density:                         0.111     0.111   0.0% |
Forces:                                     11.520    11.520   1.5% ||
Hamiltonian:                                18.979     0.029   0.0% |
 Atomic:                                     0.201     0.002   0.0% |
  XC Correction:                             0.199     0.199   0.0% |
 Calculate atomic Hamiltonians:              1.437     1.437   0.2% |
 Communicate:                                0.215     0.215   0.0% |
 Initialize Hamiltonian:                     0.000     0.000   0.0% |
 Poisson:                                    0.012     0.012   0.0% |
 XC 3D grid:                                17.085     3.028   0.4% |
  VdW-DF integral:                          14.056     0.418   0.1% |
   Convolution:                              1.110     1.110   0.1% |
   FFT:                                      0.426     0.426   0.1% |
   gather:                                   3.074     3.074   0.4% |
   hmm1:                                     0.346     0.346   0.0% |
   hmm2:                                     0.602     0.602   0.1% |
   iFFT:                                     0.368     0.368   0.0% |
   potential:                                3.892     0.062   0.0% |
    collect:                                 0.283     0.283   0.0% |
    p1:                                      1.923     1.923   0.3% |
    p2:                                      0.990     0.990   0.1% |
    sum:                                     0.634     0.634   0.1% |
   splines:                                  3.821     3.821   0.5% |
LCAO initialization:                         2.863     0.017   0.0% |
 LCAO eigensolver:                           0.500     0.000   0.0% |
  Calculate projections:                     0.000     0.000   0.0% |
  DenseAtomicCorrection:                     0.000     0.000   0.0% |
  Distribute overlap matrix:                 0.475     0.475   0.1% |
  Orbital Layouts:                           0.019     0.019   0.0% |
  Potential matrix:                          0.005     0.005   0.0% |
  Sum over cells:                            0.001     0.001   0.0% |
 LCAO to grid:                               2.072     2.072   0.3% |
 Set positions (LCAO WFS):                   0.274     0.221   0.0% |
  Basic WFS set positions:                   0.002     0.002   0.0% |
  Basis functions set positions:             0.000     0.000   0.0% |
  P tci:                                     0.001     0.001   0.0% |
  ST tci:                                    0.028     0.028   0.0% |
  mktci:                                     0.022     0.022   0.0% |
PWDescriptor:                                0.869     0.869   0.1% |
Redistribute:                                0.001     0.001   0.0% |
SCF-cycle:                                 721.711     0.757   0.1% |
 Davidson:                                 184.492    54.251   7.1% |--|
  Apply H:                                  26.035    25.516   3.3% ||
   HMM T:                                    0.520     0.520   0.1% |
  Subspace diag:                            32.232     0.009   0.0% |
   calc_h_matrix:                           28.260     1.986   0.3% |
    Apply H:                                26.274    25.656   3.3% ||
     HMM T:                                  0.618     0.618   0.1% |
   diagonalize:                              0.290     0.290   0.0% |
   rotate_psi:                               3.672     3.672   0.5% |
  calc. matrices:                           63.949    12.088   1.6% ||
   Apply H:                                 51.861    50.809   6.6% |--|
    HMM T:                                   1.052     1.052   0.1% |
  diagonalize:                               1.503     1.503   0.2% |
  rotate_psi:                                6.522     6.522   0.9% |
 Density:                                   77.655     0.002   0.0% |
  Atomic density matrices:                   0.277     0.277   0.0% |
  Mix:                                      57.790    57.790   7.5% |--|
  Multipole moments:                         0.034     0.034   0.0% |
  Pseudo density:                           19.552    14.418   1.9% ||
   Symmetrize density:                       5.133     5.133   0.7% |
 Hamiltonian:                              458.306     0.820   0.1% |
  Atomic:                                    6.186     0.053   0.0% |
   XC Correction:                            6.133     6.133   0.8% |
  Calculate atomic Hamiltonians:            43.615    43.615   5.7% |-|
  Communicate:                               6.469     6.469   0.8% |
  Poisson:                                   0.338     0.338   0.0% |
  XC 3D grid:                              400.877    91.561  12.0% |----|
   VdW-DF integral:                        309.316    12.665   1.7% ||
    Convolution:                            34.086    34.086   4.4% |-|
    FFT:                                    12.662    12.662   1.7% ||
    gather:                                 89.327    89.327  11.7% |----|
    hmm1:                                   10.756    10.756   1.4% ||
    hmm2:                                   19.221    19.221   2.5% ||
    iFFT:                                   11.280    11.280   1.5% ||
    potential:                             119.319     1.901   0.2% |
     collect:                                8.582     8.582   1.1% |
     p1:                                    59.102    59.102   7.7% |--|
     p2:                                    30.522    30.522   4.0% |-|
     sum:                                   19.211    19.211   2.5% ||
    splines:                                 0.000     0.000   0.0% |
 Orthonormalize:                             0.502     0.000   0.0% |
  calc_s_matrix:                             0.031     0.031   0.0% |
  inverse-cholesky:                          0.006     0.006   0.0% |
  projections:                               0.404     0.404   0.1% |
  rotate_psi_s:                              0.060     0.060   0.0% |
Set symmetry:                                0.002     0.002   0.0% |
Other:                                       8.511     8.511   1.1% |
-------------------------------------------------------------------
Total:                                               766.133 100.0%

Memory usage: 1.03 GiB
Date: Mon Apr 21 22:03:06 2025
