
  ___ ___ ___ _ _ _  
 |   |   |_  | | | | 
 | | | | | . | | | | 
 |__ |  _|___|_____|  25.1.1b1
 |___|_|             

User:   dmapa@x161.nifl.fysik.dtu.dk
Date:   Mon Apr 21 18:05:24 2025
Arch:   x86_64
Pid:    434389
CWD:    /home/cat/dmapa/gpaw/dissads/tree/systems/BEEF-Re/compute/relax
Python: 3.11.3
gpaw:   /home/cat/dmapa/bin/venv-asrlib/gpaw/gpaw (55eb60cdf0)
_gpaw:  /home/cat/dmapa/bin/venv-asrlib/gpaw/build/lib.linux-x86_64-broadwell_el8-cpython-311/
        _gpaw.cpython-311-x86_64-linux-gnu.so (55eb60cdf0)
ase:    /home/cat/dmapa/bin/venv-asrlib/ase/ase (version 3.26.0b1-f4168b42a5)
numpy:  /home/modules/software/SciPy-bundle/2023.07-gfbf-2023a/lib/python3.11/site-packages/numpy (version 1.25.1)
scipy:  /home/modules/software/SciPy-bundle/2023.07-gfbf-2023a/lib/python3.11/site-packages/scipy (version 1.11.1)
libxc:  6.2.2
units:  Angstrom and eV
cores: 24
OpenMP: False
OMP_NUM_THREADS: 1

Input parameters:
  kpts: {size: [8, 8, 8]}
  mixer: {backend: pulay,
          beta: 0.02,
          method: separate,
          nmaxold: 5,
          weight: 50.0}
  mode: {ecut: 500,
         name: pw}
  spinpol: False
  xc: BEEF-vdW

System changes: positions, numbers, cell, pbc, initial_charges, initial_magmoms 

Initialize ...

species:
  Re:
    name: Rhenium
    id: e7ff48666be5877df55313211be7dccb
    Z: 75.0
    valence: 13
    core: 62
    charge: 0.0
    file: /home/modules/software/GPAW-setups/24.11.0/Re.PBE.gz
    compensation charges: {type: gauss,
                           rc: 0.42,
                           lmax: 2}
    cutoffs: {filter: 2.40,
              core: 2.76}
    projectors:
      #              energy  rcut
      - 6s(2.00)    -5.924   1.376
      - 5p(6.00)   -47.045   1.376
      - 6p(0.00)    -1.325   1.376
      - 5d(5.00)    -5.383   1.307
      -  s          21.287   1.376
      -  d          21.828   1.307
  
    # Using partial waves for Re as LCAO basis

Reference energy: -907375.111031  # eV

Spin-paired calculation

Convergence criteria:
 Maximum [total energy] change in last 3 cyles: 0.0005 eV / valence electron
 Maximum integral of absolute [dens]ity change: 0.0001 electrons / valence electron
 Maximum integral of absolute [eigenst]ate change: 4e-08 eV^2 / valence electron
 Maximum number of scf [iter]ations: 333
 (Square brackets indicate name in SCF output, whereas a 'c' in
 the SCF output indicates the quantity has converged.)

Symmetries present (total): 12

  ( 1  1  0)  ( 1  1  0)  ( 1  0  0)  ( 1  0  0)  ( 0  1  0)  ( 0  1  0)
  ( 0 -1  0)  ( 0 -1  0)  ( 0  1  0)  ( 0  1  0)  (-1 -1  0)  (-1 -1  0)
  ( 0  0  1)  ( 0  0 -1)  ( 0  0  1)  ( 0  0 -1)  ( 0  0  1)  ( 0  0 -1)

  ( 0 -1  0)  ( 0 -1  0)  (-1  0  0)  (-1  0  0)  (-1 -1  0)  (-1 -1  0)
  (-1  0  0)  (-1  0  0)  ( 1  1  0)  ( 1  1  0)  ( 1  0  0)  ( 1  0  0)
  ( 0  0  1)  ( 0  0 -1)  ( 0  0  1)  ( 0  0 -1)  ( 0  0  1)  ( 0  0 -1)
Note: your k-points are not as symmetric as your crystal!

512 k-points: 8 x 8 x 8 Monkhorst-Pack grid
80 k-points in the irreducible part of the Brillouin zone
       k-points in crystal coordinates                weights
   0:     0.06250000   -0.06250000    0.06250000          4/512
   1:     0.06250000   -0.06250000    0.18750000          4/512
   2:     0.06250000   -0.06250000    0.31250000          4/512
   3:     0.06250000   -0.06250000    0.43750000          4/512
   4:     0.06250000    0.06250000    0.06250000          4/512
   5:     0.06250000    0.06250000    0.18750000          4/512
   6:     0.06250000    0.06250000    0.31250000          4/512
   7:     0.06250000    0.06250000    0.43750000          4/512
   8:     0.18750000   -0.18750000    0.06250000          4/512
   9:     0.18750000   -0.18750000    0.18750000          4/512
          ...
  79:     0.43750000    0.43750000    0.43750000          4/512

Wave functions: Plane wave expansion
  Cutoff energy: 500.000 eV
  Number of coefficients (min, max): 649, 671
  Pulay-stress correction: 0.000000 eV/Ang^3 (de/decut=0.000000)
  Using FFTW library
  ScaLapack parameters: grid=1x1, blocksize=None
  Wavefunction extrapolation:
    Improved wavefunction reuse through dual PAW basis 

Occupation numbers: Fermi-Dirac:
  width: 0.1000  # eV
 

Eigensolver
   Davidson(niter=2) 

Densities:
  Coarse grid: 14*14*24 grid
  Fine grid: 28*28*48 grid
  Total Charge: 0.000000 

Density mixing:
  Method: separate
  Backend: pulay
  Linear mixing parameter: 0.02
  old densities: 5
  Damping of long wavelength oscillations: 50 

Hamiltonian:
  XC and Coulomb potentials evaluated on a 28*28*48 grid
  Using the BEEF-vdW Exchange-Correlation functional
  External potential:
    NoExternalPotential
 

XC parameters: BEEF-vdW with 2 nearest neighbor stencil

Memory estimate:
  Process memory now: 324.77 MiB
  Calculator: 2.22 MiB
    Density: 0.66 MiB
      Arrays: 0.31 MiB
      Localized functions: 0.23 MiB
      Mixer: 0.12 MiB
    Hamiltonian: 0.21 MiB
      Arrays: 0.20 MiB
      XC: 0.00 MiB
      Poisson: 0.00 MiB
      vbar: 0.00 MiB
    Wavefunctions: 1.35 MiB
      Arrays psit_nG: 0.68 MiB
      Eigensolver: 0.15 MiB
      Projections: 0.04 MiB
      Projectors: 0.26 MiB
      PW-descriptor: 0.23 MiB

Total number of cores used: 24
Parallelization over k-points: 8
Domain decomposition: 1 x 1 x 3

Number of atoms: 2
Number of atomic orbitals: 24
Number of bands in calculation: 20
Number of valence electrons: 26
Bands to converge: occupied

... initialized

Initializing position-dependent things.

Density initialized from atomic densities
Creating initial wave functions:
  20 bands from LCAO basis set

                 
                 
                 
                 
        Re       
                 
                 
       Re        
                 
                 
                 
                 

Positions:
   0 Re     0.000000    0.000000    0.000000    ( 0.0000,  0.0000,  0.0000)
   1 Re    -0.000000    1.528873    2.132991    ( 0.0000,  0.0000,  0.0000)

Unit cell:
           periodic     x           y           z      points  spacing
  1. axis:    yes    2.648086    0.000000    0.000000    14     0.1638
  2. axis:    yes   -1.324043    2.293310    0.000000    14     0.1638
  3. axis:    yes    0.000000    0.000000    4.265982    24     0.1777

  Lengths:   2.648086   2.648086   4.265982
  Angles:   90.000000  90.000000 120.000000

Effective grid spacing dv^(1/3) = 0.1766

     iter     time        total  log10-change:
                         energy   eigst   dens
iter:   1 18:05:28  -628.896114
iter:   2 18:05:29  -628.905979   -1.12  -1.44
iter:   3 18:05:29  -629.657804   -1.82  -1.43
iter:   4 18:05:29  -629.470516   -0.50  -1.21
iter:   5 18:05:30  -629.773102   -1.69  -1.31
iter:   6 18:05:30  -628.584256   -1.05  -1.24
iter:   7 18:05:30  -628.561172   -2.34  -1.89
iter:   8 18:05:31  -628.551175   -3.05  -2.09
iter:   9 18:05:31  -628.550485c  -4.12  -2.31
iter:  10 18:05:31  -628.551754c  -3.52  -2.39
iter:  11 18:05:32  -628.550536c  -4.08  -2.62
iter:  12 18:05:32  -628.549691c  -3.71  -2.72
iter:  13 18:05:32  -628.549647c  -4.84  -3.17
iter:  14 18:05:33  -628.549576c  -5.02  -3.36
iter:  15 18:05:33  -628.549546c  -5.82  -3.57
iter:  16 18:05:33  -628.549522c  -5.52  -3.63
iter:  17 18:05:34  -628.549521c  -6.16  -3.63
iter:  18 18:05:34  -628.549523c  -6.87  -3.70
iter:  19 18:05:34  -628.549523c  -8.61c -3.72
iter:  20 18:05:34  -628.549528c  -7.03  -3.73
iter:  21 18:05:35  -628.549527c  -5.80  -3.77
iter:  22 18:05:35  -628.549543c  -5.76  -3.66
iter:  23 18:05:35  -628.549542c  -6.55  -3.92
iter:  24 18:05:36  -628.549541c  -6.95  -3.93
iter:  25 18:05:36  -628.549547c  -6.83  -3.93
iter:  26 18:05:36  -628.549545c  -7.19  -4.07c
iter:  27 18:05:37  -628.549545c  -7.52c -4.10c

Converged after 27 iterations.

Dipole moment: (-3.550610, 2.049946, -0.000000) |e|*Ang

Energy contributions relative to reference atoms: (reference = -907375.111031)

Kinetic:       +109.784789
Potential:     -102.480250
External:        +0.000000
XC:            -635.952877
Entropy (-ST):   -0.044251
Local:           +0.120919
SIC:             +0.000000
--------------------------
Free energy:   -628.571670
Extrapolated:  -628.549545

Showing only first 2 kpts
 Kpt  Band  Eigenvalues  Occupancy
  0    11     15.39240    1.99998
  0    12     15.72005    1.99944
  0    13     16.41204    1.55794
  0    14     16.59212    0.73585

  1    11     14.92974    2.00000
  1    12     15.44977    1.99996
  1    13     16.23150    1.91086
  1    14     17.19249    0.00287


Fermi level: 16.53801

No gap
No difference between direct/indirect transitions
Timing:                              incl.     excl.
-----------------------------------------------------------
Hamiltonian:                         3.760     0.000   0.0% |
 Atomic:                             0.122     0.122   0.9% |
  XC Correction:                     0.000     0.000   0.0% |
 Calculate atomic Hamiltonians:      0.001     0.001   0.0% |
 Communicate:                        0.000     0.000   0.0% |
 Initialize Hamiltonian:             0.000     0.000   0.0% |
 Poisson:                            0.000     0.000   0.0% |
 XC 3D grid:                         3.637     0.021   0.2% |
  VdW-DF integral:                   3.616     0.001   0.0% |
   Convolution:                      0.002     0.002   0.0% |
   FFT:                              0.001     0.001   0.0% |
   gather:                           0.209     0.209   1.6% ||
   hmm1:                             0.001     0.001   0.0% |
   hmm2:                             0.001     0.001   0.0% |
   iFFT:                             0.001     0.001   0.0% |
   potential:                        0.013     0.000   0.0% |
    collect:                         0.002     0.002   0.0% |
    p1:                              0.007     0.007   0.1% |
    p2:                              0.002     0.002   0.0% |
    sum:                             0.002     0.002   0.0% |
   splines:                          3.388     3.388  26.1% |---------|
LCAO initialization:                 0.560     0.072   0.6% |
 LCAO eigensolver:                   0.236     0.000   0.0% |
  Calculate projections:             0.000     0.000   0.0% |
  DenseAtomicCorrection:             0.001     0.001   0.0% |
  Distribute overlap matrix:         0.009     0.009   0.1% |
  Orbital Layouts:                   0.004     0.004   0.0% |
  Potential matrix:                  0.217     0.217   1.7% ||
  Sum over cells:                    0.005     0.005   0.0% |
 LCAO to grid:                       0.148     0.148   1.1% |
 Set positions (LCAO WFS):           0.104     0.016   0.1% |
  Basic WFS set positions:           0.001     0.001   0.0% |
  Basis functions set positions:     0.000     0.000   0.0% |
  P tci:                             0.023     0.023   0.2% |
  ST tci:                            0.051     0.051   0.4% |
  mktci:                             0.014     0.014   0.1% |
PWDescriptor:                        0.003     0.003   0.0% |
SCF-cycle:                           8.454     0.387   3.0% ||
 Davidson:                           3.087     0.783   6.0% |-|
  Apply H:                           0.373     0.351   2.7% ||
   HMM T:                            0.023     0.023   0.2% |
  Subspace diag:                     0.541     0.017   0.1% |
   calc_h_matrix:                    0.427     0.048   0.4% |
    Apply H:                         0.379     0.357   2.7% ||
     HMM T:                          0.023     0.023   0.2% |
   diagonalize:                      0.064     0.064   0.5% |
   rotate_psi:                       0.033     0.033   0.3% |
  calc. matrices:                    1.038     0.302   2.3% ||
   Apply H:                          0.737     0.692   5.3% |-|
    HMM T:                           0.045     0.045   0.3% |
  diagonalize:                       0.292     0.292   2.2% ||
  rotate_psi:                        0.059     0.059   0.5% |
 Density:                            0.379     0.000   0.0% |
  Atomic density matrices:           0.023     0.023   0.2% |
  Mix:                               0.056     0.056   0.4% |
  Multipole moments:                 0.002     0.002   0.0% |
  Pseudo density:                    0.298     0.191   1.5% ||
   Symmetrize density:               0.107     0.107   0.8% |
 Hamiltonian:                        4.596     0.010   0.1% |
  Atomic:                            3.174     3.174  24.4% |---------|
   XC Correction:                    0.000     0.000   0.0% |
  Calculate atomic Hamiltonians:     0.017     0.017   0.1% |
  Communicate:                       0.032     0.032   0.2% |
  Poisson:                           0.003     0.003   0.0% |
  XC 3D grid:                        1.360     0.535   4.1% |-|
   VdW-DF integral:                  0.825     0.021   0.2% |
    Convolution:                     0.040     0.040   0.3% |
    FFT:                             0.020     0.020   0.2% |
    gather:                          0.331     0.331   2.5% ||
    hmm1:                            0.028     0.028   0.2% |
    hmm2:                            0.031     0.031   0.2% |
    iFFT:                            0.024     0.024   0.2% |
    potential:                       0.331     0.006   0.0% |
     collect:                        0.039     0.039   0.3% |
     p1:                             0.183     0.183   1.4% ||
     p2:                             0.051     0.051   0.4% |
     sum:                            0.052     0.052   0.4% |
    splines:                         0.000     0.000   0.0% |
 Orthonormalize:                     0.006     0.001   0.0% |
  calc_s_matrix:                     0.001     0.001   0.0% |
  inverse-cholesky:                  0.001     0.001   0.0% |
  projections:                       0.002     0.002   0.0% |
  rotate_psi_s:                      0.001     0.001   0.0% |
Set symmetry:                        0.024     0.024   0.2% |
Other:                               0.197     0.197   1.5% ||
-----------------------------------------------------------
Total:                                        12.999 100.0%

Memory usage: 324.77 MiB
Date: Mon Apr 21 18:05:37 2025
