
  ___ ___ ___ _ _ _  
 |   |   |_  | | | | 
 | | | | | . | | | | 
 |__ |  _|___|_____|  25.1.1b1
 |___|_|             

User:   dmapa@x028.nifl.fysik.dtu.dk
Date:   Fri Apr 25 12:36:52 2025
Arch:   x86_64
Pid:    408764
CWD:    /home/cat/dmapa/gpaw/dissads/tree/surfaces/BEEF-Zn/min_surf/relax
Python: 3.11.3
gpaw:   /home/cat/dmapa/bin/venv-asrlib/gpaw/gpaw (55eb60cdf0)
_gpaw:  /home/cat/dmapa/bin/venv-asrlib/gpaw/build/lib.linux-x86_64-broadwell_el8-cpython-311/
        _gpaw.cpython-311-x86_64-linux-gnu.so (55eb60cdf0)
ase:    /home/cat/dmapa/bin/venv-asrlib/ase/ase (version 3.26.0b1-f4168b42a5)
numpy:  /home/modules/software/SciPy-bundle/2023.07-gfbf-2023a/lib/python3.11/site-packages/numpy (version 1.25.1)
scipy:  /home/modules/software/SciPy-bundle/2023.07-gfbf-2023a/lib/python3.11/site-packages/scipy (version 1.11.1)
libxc:  6.2.2
units:  Angstrom and eV
cores: 24
OpenMP: False
OMP_NUM_THREADS: 1

Input parameters:
  kpts: {size: [4, 3, 1]}
  mixer: {backend: pulay,
          beta: 0.02,
          method: separate,
          nmaxold: 5,
          weight: 50.0}
  mode: {ecut: 500,
         name: pw}
  spinpol: False
  symmetry: off
  xc: BEEF-vdW

System changes: positions, numbers, cell, pbc, initial_charges, initial_magmoms 

Initialize ...

species:
  Zn:
    name: Zinc
    id: 9da902d12d12265ad8e0029a903fe3c0
    Z: 30.0
    valence: 12
    core: 18
    charge: 0.0
    file: /home/modules/software/GPAW-setups/24.11.0/Zn.PBE.gz
    compensation charges: {type: gauss,
                           rc: 0.37,
                           lmax: 2}
    cutoffs: {filter: 2.14,
              core: 2.28}
    projectors:
      #              energy  rcut
      - 4s(2.00)    -5.977   1.286
      - 4p(0.00)    -1.117   1.270
      - 3d(10.00)   -10.142   1.180
      -  s          21.234   1.286
      -  p          26.095   1.270
      -  d          17.070   1.180
  
    # Using partial waves for Zn as LCAO basis

Reference energy: -1759007.759505  # eV

Spin-paired calculation

Convergence criteria:
 Maximum [total energy] change in last 3 cyles: 0.0005 eV / valence electron
 Maximum integral of absolute [dens]ity change: 0.0001 electrons / valence electron
 Maximum integral of absolute [eigenst]ate change: 4e-08 eV^2 / valence electron
 Maximum number of scf [iter]ations: 333
 (Square brackets indicate name in SCF output, whereas a 'c' in
 the SCF output indicates the quantity has converged.)

Symmetries present (total): 1

  ( 1  0  0)
  ( 0  1  0)
  ( 0  0  1)

12 k-points: 4 x 3 x 1 Monkhorst-Pack grid
12 k-points in the irreducible part of the Brillouin zone
       k-points in crystal coordinates                weights
   0:    -0.37500000   -0.33333333    0.00000000          1/12
   1:    -0.37500000    0.00000000    0.00000000          1/12
   2:    -0.37500000    0.33333333    0.00000000          1/12
   3:    -0.12500000   -0.33333333    0.00000000          1/12
   4:    -0.12500000    0.00000000    0.00000000          1/12
   5:    -0.12500000    0.33333333    0.00000000          1/12
   6:     0.12500000   -0.33333333    0.00000000          1/12
   7:     0.12500000    0.00000000    0.00000000          1/12
   8:     0.12500000    0.33333333    0.00000000          1/12
   9:     0.37500000   -0.33333333    0.00000000          1/12
          ...
  11:     0.37500000    0.33333333    0.00000000          1/12

Wave functions: Plane wave expansion
  Cutoff energy: 500.000 eV
  Number of coefficients (min, max): 58004, 58091
  Pulay-stress correction: 0.000000 eV/Ang^3 (de/decut=0.000000)
  Using FFTW library
  ScaLapack parameters: grid=1x1, blocksize=None
  Wavefunction extrapolation:
    Improved wavefunction reuse through dual PAW basis 

Occupation numbers: Fermi-Dirac:
  width: 0.1000  # eV
 

Eigensolver
   Davidson(niter=2) 

Densities:
  Coarse grid: 42*49*160 grid
  Fine grid: 84*98*320 grid
  Total Charge: 0.000000 

Density mixing:
  Method: separate
  Backend: pulay
  Linear mixing parameter: 0.02
  old densities: 5
  Damping of long wavelength oscillations: 50 

Hamiltonian:
  XC and Coulomb potentials evaluated on a 84*98*320 grid
  Using the BEEF-vdW Exchange-Correlation functional
  External potential:
    NoExternalPotential
 

XC parameters: BEEF-vdW with 2 nearest neighbor stencil

Memory estimate:
  Process memory now: 1031.34 MiB
  Calculator: 362.51 MiB
    Density: 75.91 MiB
      Arrays: 32.66 MiB
      Localized functions: 30.70 MiB
      Mixer: 12.56 MiB
    Hamiltonian: 21.98 MiB
      Arrays: 21.35 MiB
      XC: 0.00 MiB
      Poisson: 0.00 MiB
      vbar: 0.63 MiB
    Wavefunctions: 264.62 MiB
      Arrays psit_nG: 117.01 MiB
      Eigensolver: 129.87 MiB
      Projections: 1.31 MiB
      Projectors: 3.32 MiB
      PW-descriptor: 13.12 MiB

Total number of cores used: 24
Parallelization over k-points: 12
Domain decomposition: 1 x 1 x 2

Number of atoms: 36
Number of atomic orbitals: 324
Number of bands in calculation: 264
Number of valence electrons: 432
Bands to converge: occupied

... initialized

Initializing position-dependent things.

Density initialized from atomic densities
Creating initial wave functions:
  264 bands from LCAO basis set

       .-------------------.  
      /|                   |  
     / |                   |  
    /  |                   |  
   /   |                   |  
  /    |                   |  
 *     |                   |  
 |     |                   |  
 |     |                   |  
 |     |                   |  
 |     |                   |  
 |     |                   |  
 |     |                   |  
 |     |                   |  
 |     |                   |  
 |     |                   |  
 |     |                   |  
 |     | Zn     Zn    Zn   |  
 |  Zn |   Zn    Zn        |  
 |     |  Zn     Zn    Zn  |  
 |    Zn     Zn    Zn      |  
 Zn  Zn|Zn  ZnZn  Zn       |  
 |     Zn     Zn    Zn     |  
 |     | Zn     Zn    Zn   |  
 |Zn   | Zn    Zn          |  
 |  Zn |   Zn    Zn        |  
 |    Zn     Zn    Zn      |  
 |     |                   |  
 Zn    |Zn    Zn           |  
 |     |                   |  
 |     |                   |  
 |     |                   |  
 |     |                   |  
 |     |                   |  
 |     |                   |  
 |     |                   |  
 |     |                   |  
 |     .-------------------.  
 |    /                   /   
 |   /                   /    
 |  /                   /     
 | /                   /      
 |/                   /       
 *-------------------*        

Positions:
   0 Zn     0.000000    0.000000   12.539848    ( 0.0000,  0.0000,  0.0000)
   1 Zn     2.708658    0.000000   12.539848    ( 0.0000,  0.0000,  0.0000)
   2 Zn     5.417315    0.000000   12.539848    ( 0.0000,  0.0000,  0.0000)
   3 Zn     1.354329    2.345766   12.539848    ( 0.0000,  0.0000,  0.0000)
   4 Zn     4.062986    2.345766   12.539848    ( 0.0000,  0.0000,  0.0000)
   5 Zn     6.771644    2.345766   12.539848    ( 0.0000,  0.0000,  0.0000)
   6 Zn     0.000000    4.691532   12.539848    ( 0.0000,  0.0000,  0.0000)
   7 Zn     2.708658    4.691532   12.539848    ( 0.0000,  0.0000,  0.0000)
   8 Zn     5.417315    4.691532   12.539848    ( 0.0000,  0.0000,  0.0000)
   9 Zn     1.354329    7.037299   12.539848    ( 0.0000,  0.0000,  0.0000)
  10 Zn     4.062986    7.037299   12.539848    ( 0.0000,  0.0000,  0.0000)
  11 Zn     6.771644    7.037299   12.539848    ( 0.0000,  0.0000,  0.0000)
  12 Zn     0.000000    1.563844   15.000000    ( 0.0000,  0.0000,  0.0000)
  13 Zn     2.708658    1.563844   15.000000    ( 0.0000,  0.0000,  0.0000)
  14 Zn     5.417315    1.563844   15.000000    ( 0.0000,  0.0000,  0.0000)
  15 Zn     1.354329    3.909610   15.000000    ( 0.0000,  0.0000,  0.0000)
  16 Zn     4.062986    3.909610   15.000000    ( 0.0000,  0.0000,  0.0000)
  17 Zn     6.771644    3.909610   15.000000    ( 0.0000,  0.0000,  0.0000)
  18 Zn     0.000000    6.255377   15.000000    ( 0.0000,  0.0000,  0.0000)
  19 Zn     2.708658    6.255377   15.000000    ( 0.0000,  0.0000,  0.0000)
  20 Zn     5.417315    6.255377   15.000000    ( 0.0000,  0.0000,  0.0000)
  21 Zn     1.354329    8.601143   15.000000    ( 0.0000,  0.0000,  0.0000)
  22 Zn     4.062986    8.601143   15.000000    ( 0.0000,  0.0000,  0.0000)
  23 Zn     6.771644    8.601143   15.000000    ( 0.0000,  0.0000,  0.0000)
  24 Zn    -0.000000    0.000042   17.461627    ( 0.0000,  0.0000,  0.0000)
  25 Zn     2.708658    0.000042   17.461627    ( 0.0000,  0.0000,  0.0000)
  26 Zn     5.417315    0.000042   17.461627    ( 0.0000,  0.0000,  0.0000)
  27 Zn     1.354329    2.345807   17.461627    ( 0.0000,  0.0000,  0.0000)
  28 Zn     4.062986    2.345807   17.461627    ( 0.0000,  0.0000,  0.0000)
  29 Zn     6.771644    2.345807   17.461627    ( 0.0000,  0.0000,  0.0000)
  30 Zn     0.000000    4.691574   17.461629    ( 0.0000,  0.0000,  0.0000)
  31 Zn     2.708658    4.691574   17.461629    ( 0.0000,  0.0000,  0.0000)
  32 Zn     5.417315    4.691574   17.461629    ( 0.0000,  0.0000,  0.0000)
  33 Zn     1.354329    7.037341   17.461627    ( 0.0000,  0.0000,  0.0000)
  34 Zn     4.062986    7.037341   17.461627    ( 0.0000,  0.0000,  0.0000)
  35 Zn     6.771644    7.037341   17.461627    ( 0.0000,  0.0000,  0.0000)

Unit cell:
           periodic     x           y           z      points  spacing
  1. axis:    yes    8.125973    0.000000    0.000000    42     0.1935
  2. axis:    yes    0.000000    9.383065    0.000000    49     0.1915
  3. axis:    no     0.000000    0.000000   30.000000   160     0.1875

  Lengths:   8.125973   9.383065  30.000000
  Angles:   90.000000  90.000000  90.000000

Effective grid spacing dv^(1/3) = 0.1908

     iter     time        total  log10-change:
                         energy   eigst   dens
iter:   1 12:38:01 -2775.353158
iter:   2 12:38:33 -2776.290863   -0.18  -1.50
iter:   3 12:39:06 -2776.796491   -0.81  -1.50
iter:   4 12:39:38 -2777.417016   -0.98  -1.57
iter:   5 12:40:11 -2777.440687   -1.39  -2.28
iter:   6 12:40:43 -2777.367701c  -1.60  -2.32
iter:   7 12:41:16 -2777.354592c  -2.17  -2.84
iter:   8 12:41:48 -2777.358062c  -2.59  -2.76
iter:   9 12:42:21 -2777.358493c  -3.15  -2.78
iter:  10 12:42:53 -2777.365429c  -3.64  -2.93
iter:  11 12:43:25 -2777.365737c  -4.16  -3.20
iter:  12 12:43:58 -2777.365795c  -4.25  -3.32
iter:  13 12:44:30 -2777.364909c  -3.99  -3.38
iter:  14 12:45:03 -2777.364481c  -4.98  -3.82
iter:  15 12:45:35 -2777.364556c  -5.64  -3.83
iter:  16 12:46:08 -2777.364452c  -6.16  -3.80
iter:  17 12:46:40 -2777.364891c  -5.79  -3.85
iter:  18 12:47:13 -2777.364287c  -5.58  -3.75
iter:  19 12:47:45 -2777.364211c  -6.50  -3.90
iter:  20 12:48:18 -2777.364180c  -5.76  -3.89
iter:  21 12:48:51 -2777.364156c  -6.11  -3.96
iter:  22 12:49:23 -2777.364087c  -6.35  -3.96
iter:  23 12:49:56 -2777.364104c  -6.85  -4.02c
iter:  24 12:50:28 -2777.364202c  -6.55  -4.08c
iter:  25 12:51:01 -2777.364294c  -6.06  -4.15c
iter:  26 12:51:33 -2777.364243c  -6.61  -4.10c
iter:  27 12:52:05 -2777.364253c  -6.88  -4.14c
iter:  28 12:52:38 -2777.364248c  -7.95c -4.16c

Converged after 28 iterations.

Dipole moment: (0.000000, 12.972228, 0.000412) |e|*Ang

Energy contributions relative to reference atoms: (reference = -1759007.759505)

Kinetic:       +631.816400
Potential:     -524.147610
External:        +0.000000
XC:            -2882.971482
Entropy (-ST):   -0.275400
Local:           -1.923857
SIC:             +0.000000
--------------------------
Free energy:   -2777.501948
Extrapolated:  -2777.364248

Showing only first 2 kpts
 Kpt  Band  Eigenvalues  Occupancy
  0   214     -2.29929    1.99358
  0   215     -2.15944    1.97424
  0   216     -1.96448    1.83205
  0   217     -1.64338    0.61089

  1   214     -2.52451    1.99932
  1   215     -2.39795    1.99760
  1   216     -1.63062    0.55813
  1   217     -1.21626    0.01221


Fermi level: -1.72553

No gap
No difference be
Forces in eV/Ang:
  0 Zn   -0.00000    0.00291   -0.10324
  1 Zn   -0.00000    0.00291   -0.10324
  2 Zn    0.00000    0.00291   -0.10324
  3 Zn    0.00000    0.00286   -0.10322
  4 Zn   -0.00000    0.00286   -0.10322
  5 Zn   -0.00000    0.00286   -0.10322
  6 Zn    0.00000    0.00292   -0.10337
  7 Zn    0.00000    0.00292   -0.10337
  8 Zn   -0.00000    0.00292   -0.10337
  9 Zn    0.00000    0.00299   -0.10325
 10 Zn    0.00000    0.00299   -0.10325
 11 Zn   -0.00000    0.00299   -0.10325
 12 Zn    0.00000   -0.00578    0.00000
 13 Zn   -0.00000   -0.00578    0.00000
 14 Zn    0.00000   -0.00578    0.00000
 15 Zn   -0.00000   -0.00575    0.00000
 16 Zn    0.00000   -0.00575    0.00000
 17 Zn    0.00000   -0.00575    0.00000
 18 Zn    0.00000   -0.00558    0.00000
 19 Zn   -0.00000   -0.00558    0.00000
 20 Zn    0.00000   -0.00558    0.00000
 21 Zn   -0.00000   -0.00560    0.00000
 22 Zn    0.00000   -0.00560    0.00000
 23 Zn    0.00000   -0.00560    0.00000
 24 Zn   -0.00000    0.00291    0.10324
 25 Zn   -0.00000    0.00291    0.10324
 26 Zn    0.00000    0.00291    0.10324
 27 Zn    0.00000    0.00286    0.10322
 28 Zn   -0.00000    0.00286    0.10322
 29 Zn   -0.00000    0.00286    0.10322
 30 Zn    0.00000    0.00292    0.10337
 31 Zn    0.00000    0.00292    0.10337
 32 Zn   -0.00000    0.00292    0.10337
 33 Zn    0.00000    0.00299    0.10325
 34 Zn    0.00000    0.00299    0.10325
 35 Zn   -0.00000    0.00299    0.10325

System changes: positions 

Initializing position-dependent things.

Timing:                              incl.     excl.
-----------------------------------------------------------
Forces:                              4.486     4.486   0.1% |
Hamiltonian:                         8.233     0.010   0.0% |
 Atomic:                             0.090     0.001   0.0% |
  XC Correction:                     0.089     0.089   0.0% |
 Calculate atomic Hamiltonians:      0.444     0.444   0.0% |
 Communicate:                        0.089     0.089   0.0% |
 Initialize Hamiltonian:             0.001     0.001   0.0% |
 Poisson:                            0.004     0.004   0.0% |
 XC 3D grid:                         7.596     0.864   0.0% |
  VdW-DF integral:                   6.732     0.127   0.0% |
   Convolution:                      0.311     0.311   0.0% |
   FFT:                              0.111     0.111   0.0% |
   gather:                           0.899     0.899   0.0% |
   hmm1:                             0.105     0.105   0.0% |
   hmm2:                             0.181     0.181   0.0% |
   iFFT:                             0.104     0.104   0.0% |
   potential:                        1.091     0.019   0.0% |
    collect:                         0.081     0.081   0.0% |
    p1:                              0.538     0.538   0.0% |
    p2:                              0.279     0.279   0.0% |
    sum:                             0.174     0.174   0.0% |
   splines:                          3.803     3.803   0.1% |
LCAO initialization:                16.294     0.052   0.0% |
 LCAO eigensolver:                   2.045     0.001   0.0% |
  Calculate projections:             0.000     0.000   0.0% |
  DenseAtomicCorrection:             0.000     0.000   0.0% |
  Distribute overlap matrix:         1.951     1.951   0.1% |
  Orbital Layouts:                   0.091     0.091   0.0% |
  Potential matrix:                  0.001     0.001   0.0% |
  Sum over cells:                    0.001     0.001   0.0% |
 LCAO to grid:                      13.626    13.626   0.4% |
 Set positions (LCAO WFS):           0.572     0.495   0.0% |
  Basic WFS set positions:           0.004     0.004   0.0% |
  Basis functions set positions:     0.000     0.000   0.0% |
  P tci:                             0.001     0.001   0.0% |
  ST tci:                            0.046     0.046   0.0% |
  mktci:                             0.025     0.025   0.0% |
PWDescriptor:                        0.712     0.712   0.0% |
Redistribute:                        0.000     0.000   0.0% |
SCF-cycle:                         475.709     0.035   0.0% |
 Davidson:                         290.894    65.907   1.8% ||
  Apply H:                          29.515    28.800   0.8% |
   HMM T:                            0.715     0.715   0.0% |
  Subspace diag:                    49.776     0.004   0.0% |
   calc_h_matrix:                   36.433     7.393   0.2% |
    Apply H:                        29.040    28.318   0.8% |
     HMM T:                          0.722     0.722   0.0% |
   diagonalize:                      1.526     1.526   0.0% |
   rotate_psi:                      11.814    11.814   0.3% |
  calc. matrices:                  104.343    46.673   1.3% ||
   Apply H:                         57.669    56.261   1.6% ||
    HMM T:                           1.408     1.408   0.0% |
  diagonalize:                      18.933    18.933   0.5% |
  rotate_psi:                       22.421    22.421   0.6% |
 Density:                           38.512     0.001   0.0% |
  Atomic density matrices:           0.216     0.216   0.0% |
  Mix:                              19.475    19.475   0.5% |
  Multipole moments:                 0.019     0.019   0.0% |
  Pseudo density:                   18.801    15.669   0.4% |
   Symmetrize density:               3.132     3.132   0.1% |
 Hamiltonian:                      145.523     0.286   0.0% |
  Atomic:                            3.016     0.021   0.0% |
   XC Correction:                    2.995     2.995   0.1% |
  Calculate atomic Hamiltonians:    14.591    14.591   0.4% |
  Communicate:                       3.084     3.084   0.1% |
  Poisson:                           0.111     0.111   0.0% |
  XC 3D grid:                      124.434    28.024   0.8% |
   VdW-DF integral:                 96.411     3.993   0.1% |
    Convolution:                    10.633    10.633   0.3% |
    FFT:                             4.042     4.042   0.1% |
    gather:                         27.736    27.736   0.8% |
    hmm1:                            3.300     3.300   0.1% |
    hmm2:                            5.936     5.936   0.2% |
    iFFT:                            3.528     3.528   0.1% |
    potential:                      37.242     0.710   0.0% |
     collect:                        2.782     2.782   0.1% |
     p1:                            18.345    18.345   0.5% |
     p2:                             9.548     9.548   0.3% |
     sum:                            5.858     5.858   0.2% |
    splines:                         0.000     0.000   0.0% |
 Orthonormalize:                     0.746     0.000   0.0% |
  calc_s_matrix:                     0.105     0.105   0.0% |
  inverse-cholesky:                  0.026     0.026   0.0% |
  projections:                       0.435     0.435   0.0% |
  rotate_psi_s:                      0.180     0.180   0.0% |
Set symmetry:                        0.003     0.003   0.0% |
Other:                            3099.237  3099.237  86.0% |---------------------------------|
-----------------------------------------------------------
Total:                                      3604.675 100.0%

Memory usage: 1.97 GiB
Date: Fri Apr 25 13:28:24 2025
owing only first 2 kpts
 Kpt  Band  Eigenvalues  Occupancy
  0   214     -2.30269    1.99360
  0   215     -2.16326    1.97443
  0   216     -1.96874    1.83388
  0   217     -1.64682    0.61249

  1   214     -2.52791    1.99932
  1   215     -2.40066    1.99759
  1   216     -1.63335    0.55679
  1   217     -1.21972    0.01226


Fermi level: -1.72859

No gap
No difference between direct/indirect transitions

Forces in eV/Ang:
  0 Zn    0.00000    0.00283   -0.10253
  1 Zn    0.00000    0.00283   -0.10253
  2 Zn   -0.00000    0.00283   -0.10253
  3 Zn    0.00000    0.00274   -0.10245
  4 Zn   -0.00000    0.00274   -0.10245
  5 Zn   -0.00000    0.00274   -0.10245
  6 Zn    0.00000    0.00283   -0.10252
  7 Zn    0.00000    0.00283   -0.10252
  8 Zn   -0.00000    0.00283   -0.10252
  9 Zn    0.00000    0.00288   -0.10244
 10 Zn    0.00000    0.00288   -0.10244
 11 Zn   -0.00000    0.00288   -0.10244
 12 Zn   -0.00000   -0.00575    0.00410
 13 Zn   -0.00000   -0.00575    0.00410
 14 Zn    0.00000   -0.00575    0.00410
 15 Zn    0.00000   -0.00572    0.00410
 16 Zn    0.00000   -0.00572    0.00410
 17 Zn   -0.00000   -0.00572    0.00410
 18 Zn   -0.00000   -0.00565    0.00409
 19 Zn   -0.00000   -0.00565    0.00409
 20 Zn    0.00000   -0.00565    0.00409
 21 Zn    0.00000   -0.00569    0.00410
 22 Zn   -0.00000   -0.00569    0.00410
 23 Zn   -0.00000   -0.00569    0.00410
 24 Zn   -0.00000    0.00279    0.09644
 25 Zn    0.00000    0.00279    0.09644
 26 Zn   -0.00000    0.00279    0.09644
 27 Zn    0.00000    0.00271    0.09633
 28 Zn   -0.00000    0.00271    0.09633
 29 Zn   -0.00000    0.00271    0.09633
 30 Zn   -0.00000    0.00278    0.09635
 31 Zn   -0.00000    0.00279    0.09635
 32 Zn    0.00000    0.00279    0.09635
 33 Zn   -0.00000    0.00285    0.09631
 34 Zn   -0.00000    0.00286    0.09631
 35 Zn    0.00000    0.00285    0.09631

System changes: positions 

Initializing position-dependent things.

Density initialized from wave functions
       .-------------------.  
      /|                   |  
     / |                   |  
    /  |                   |  
   /   |                   |  
  /    |                   |  
 *     |                   |  
 |     |                   |  
 |     |                   |  
 |     |                   |  
 |     |                   |  
 |     |                   |  
 |     |                   |  
 |     |                   |  
 |     |                   |  
 |     |                   |  
 |     |                   |  
 |     | Zn     Zn    Zn   |  
 |     |   Zn    Zn     Zn |  
 |     |  Zn     Zn    Zn  |  
 |    Zn     Zn    Zn      |  
 |   Zn|Zn  ZnZn  Zn Zn    |  
 |     Zn     Zn    Zn     |  
 |     | Zn     Zn    Zn   |  
 |Zn   | Zn    Zn          |  
 |  Zn |   Zn    Zn        |  
 |    Zn     Zn    Zn      |  
 |     |                   |  
 Zn    |Zn    Zn           |  
 |     |                   |  
 |     |                   |  
 |     |                   |  
 |     |                   |  
 |     |                   |  
 |     |                   |  
 |     |                   |  
 |     |                   |  
 |     .-------------------.  
 |    /                   /   
 |   /                   /    
 |  /                   /     
 | /                   /      
 |/                   /       
 *-------------------*        

Positions:
   0 Zn     0.000000    0.000000   12.539848    ( 0.0000,  0.0000,  0.0000)
   1 Zn     2.708658    0.000000   12.539848    ( 0.0000,  0.0000,  0.0000)
   2 Zn     5.417315    0.000000   12.539848    ( 0.0000,  0.0000,  0.0000)
   3 Zn     1.354329    2.345766   12.539848    ( 0.0000,  0.0000,  0.0000)
   4 Zn     4.062986    2.345766   12.539848    ( 0.0000,  0.0000,  0.0000)
   5 Zn     6.771644    2.345766   12.539848    ( 0.0000,  0.0000,  0.0000)
   6 Zn     0.000000    4.691532   12.539848    ( 0.0000,  0.0000,  0.0000)
   7 Zn     2.708658    4.691532   12.539848    ( 0.0000,  0.0000,  0.0000)
   8 Zn     5.417315    4.691532   12.539848    ( 0.0000,  0.0000,  0.0000)
   9 Zn     1.354329    7.037299   12.539848    ( 0.0000,  0.0000,  0.0000)
  10 Zn     4.062986    7.037299   12.539848    ( 0.0000,  0.0000,  0.0000)
  11 Zn     6.771644    7.037299   12.539848    ( 0.0000,  0.0000,  0.0000)
  12 Zn     0.000000    1.563844   15.000000    ( 0.0000,  0.0000,  0.0000)
  13 Zn     2.708658    1.563844   15.000000    ( 0.0000,  0.0000,  0.0000)
  14 Zn     5.417315    1.563844   15.000000    ( 0.0000,  0.0000,  0.0000)
  15 Zn     1.354329    3.909610   15.000000    ( 0.0000,  0.0000,  0.0000)
  16 Zn     4.062986    3.909610   15.000000    ( 0.0000,  0.0000,  0.0000)
  17 Zn     6.771644    3.909610   15.000000    ( 0.0000,  0.0000,  0.0000)
  18 Zn     0.000000    6.255377   15.000000    ( 0.0000,  0.0000,  0.0000)
  19 Zn     2.708658    6.255377   15.000000    ( 0.0000,  0.0000,  0.0000)
  20 Zn     5.417315    6.255377   15.000000    ( 0.0000,  0.0000,  0.0000)
  21 Zn     1.354329    8.601143   15.000000    ( 0.0000,  0.0000,  0.0000)
  22 Zn     4.062986    8.601143   15.000000    ( 0.0000,  0.0000,  0.0000)
  23 Zn     6.771644    8.601143   15.000000    ( 0.0000,  0.0000,  0.0000)
  24 Zn    -0.000000    0.000551   17.479172    ( 0.0000,  0.0000,  0.0000)
  25 Zn     2.708658    0.000552   17.479172    ( 0.0000,  0.0000,  0.0000)
  26 Zn     5.417315    0.000552   17.479172    ( 0.0000,  0.0000,  0.0000)
  27 Zn     1.354329    2.346303   17.479153    ( 0.0000,  0.0000,  0.0000)
  28 Zn     4.062986    2.346302   17.479153    ( 0.0000,  0.0000,  0.0000)
  29 Zn     6.771644    2.346303   17.479153    ( 0.0000,  0.0000,  0.0000)
  30 Zn    -0.000000    4.692082   17.479159    ( 0.0000,  0.0000,  0.0000)
  31 Zn     2.708657    4.692083   17.479160    ( 0.0000,  0.0000,  0.0000)
  32 Zn     5.417316    4.692083   17.479160    ( 0.0000,  0.0000,  0.0000)
  33 Zn     1.354329    7.037859   17.479150    ( 0.0000,  0.0000,  0.0000)
  34 Zn     4.062986    7.037859   17.479150    ( 0.0000,  0.0000,  0.0000)
  35 Zn     6.771644    7.037859   17.479150    ( 0.0000,  0.0000,  0.0000)

Unit cell:
           periodic     x           y           z      points  spacing
  1. axis:    yes    8.125973    0.000000    0.000000    42     0.1935
  2. axis:    yes    0.000000    9.383065    0.000000    49     0.1915
  3. axis:    no     0.000000    0.000000   30.000000   160     0.1875

  Lengths:   8.125973   9.383065  30.000000
  Angles:   90.000000  90.000000  90.000000

Effective grid spacing dv^(1/3) = 0.1908

     iter     time        total  log10-change:
                         energy   eigst   dens
iter:   1 13:00:16 -2777.487219   -1.87
iter:   2 13:00:49 -2777.466959   -2.45  -2.54
iter:   3 13:01:21 -2777.404647c  -2.69  -2.58
iter:   4 13:01:54 -2777.391548c  -3.09  -2.81
iter:   5 13:02:26 -2777.388766c  -3.49  -3.03
iter:   6 13:02:59 -2777.387124c  -3.95  -3.10
iter:   7 13:03:31 -2777.382216c  -3.37  -3.21
iter:   8 13:04:04 -2777.382261c  -3.75  -3.89
iter:   9 13:04:36 -2777.382386c  -4.03  -3.89
iter:  10 13:05:09 -2777.382523c  -4.04  -3.81
iter:  11 13:05:41 -2777.382510c  -4.44  -3.63
iter:  12 13:06:14 -2777.382370c  -5.04  -3.63
iter:  13 13:06:46 -2777.382404c  -5.60  -3.91
iter:  14 13:07:19 -2777.382506c  -5.25  -3.96
iter:  15 13:07:51 -2777.382490c  -5.97  -4.21c
iter:  16 13:08:24 -2777.382653c  -5.21  -4.20c
iter:  17 13:08:56 -2777.382317c  -6.37  -3.91
iter:  18 13:09:28 -2777.382313c  -6.73  -4.33c
iter:  19 13:10:01 -2777.382277c  -7.12  -4.24c
iter:  20 13:10:33 -2777.382236c  -6.10  -4.31c
iter:  21 13:11:06 -2777.382256c  -6.93  -4.68c
iter:  22 13:11:38 -2777.382262c  -7.20  -4.81c
iter:  23 13:12:11 -2777.382257c  -7.27  -4.86c
iter:  24 13:12:43 -2777.382259c  -7.82c -4.93c

Converged after 24 iterations.

Dipole moment: (-0.000000, 12.922840, 0.006716) |e|*Ang

Energy contributions relative to reference atoms: (reference = -1759007.759505)

Kinetic:       +629.258300
Potential:     -522.024888
External:        +0.000000
XC:            -2882.536211
Entropy (-ST):   -0.276931
Local:           -1.940996
SIC:             +0.000000
--------------------------
Free energy:   -2777.520725
Extrapolated:  -2777.382259

Showing only first 2 kpts
 Kpt  Band  Eigenvalues  Occupancy
  0   214     -2.30439    1.99416
  0   215     -2.16246    1.97607
  0   216     -1.97301    1.85097
  0   217     -1.64882    0.65365

  1   214     -2.52950    1.99938
  1   215     -2.38868    1.99748
  1   216     -1.62146    0.53937
  1   217     -1.22187    0.01349


Fermi level: -1.72108

No gap
No difference between direct/indirect transitions

Forces in eV/Ang:
  0 Zn    0.00000    0.00285   -0.10188
  1 Zn   -0.00000    0.00284   -0.10187
  2 Zn    0.00000    0.00284   -0.10187
  3 Zn    0.00000    0.00272   -0.10182
  4 Zn    0.00000    0.00272   -0.10183
  5 Zn   -0.00000    0.00272   -0.10182
  6 Zn   -0.00000    0.00285   -0.10193
  7 Zn   -0.00001    0.00286   -0.10190
  8 Zn    0.00001    0.00286   -0.10190
  9 Zn    0.00005    0.00290   -0.10184
 10 Zn    0.00000    0.00291   -0.10181
 11 Zn   -0.00004    0.00290   -0.10184
 12 Zn   -0.00000   -0.00536    0.02378
 13 Zn   -0.00000   -0.00540    0.02381
 14 Zn    0.00000   -0.00539    0.02381
 15 Zn   -0.00001   -0.00534    0.02380
 16 Zn   -0.00000   -0.00532    0.02380
 17 Zn    0.00001   -0.00534    0.02380
 18 Zn   -0.00000   -0.00523    0.02381
 19 Zn   -0.00000   -0.00523    0.02377
 20 Zn    0.00000   -0.00523    0.02377
 21 Zn    0.00002   -0.00526    0.02378
 22 Zn   -0.00000   -0.00524    0.02379
 23 Zn   -0.00002   -0.00526    0.02378
 24 Zn   -0.00000    0.00271    0.07906
 25 Zn   -0.00002    0.00267    0.07901
 26 Zn    0.00002    0.00267    0.07901
 27 Zn    0.00000    0.00268    0.07907
 28 Zn   -0.00000    0.00265    0.07904
 29 Zn   -0.00000    0.00268    0.07907
 30 Zn   -0.00000    0.00269    0.07914
 31 Zn   -0.00000    0.00265    0.07916
 32 Zn    0.00000    0.00265    0.07916
 33 Zn   -0.00000    0.00273    0.07903
 34 Zn    0.00000    0.00272    0.07901
 35 Zn    0.00000    0.00273    0.07903

System changes: positions 

Initializing position-dependent things.

Density initialized from wave functions
       .-------------------.  
      /|                   |  
     / |                   |  
    /  |                   |  
   /   |                   |  
  /    |                   |  
 *     |                   |  
 |     |                   |  
 |     |                   |  
 |     |                   |  
 |     |                   |  
 |     |                   |  
 |     |                   |  
 |     |                   |  
 |     |                   |  
 |     |                   |  
 |     |                   |  
 |     | Zn     Zn    Zn   |  
 |     |   Zn    Zn     Zn |  
 |     |  Zn     Zn    Zn  |  
 |    Zn     Zn    Zn      |  
 |   Zn|Zn  ZnZn  Zn Zn    |  
 |     Zn     Zn    Zn     |  
 |     | Zn     Zn    Zn   |  
 |Zn   | Zn    Zn          |  
 |  Zn |   Zn    Zn        |  
 |    Zn     Zn    Zn      |  
 |     |                   |  
 Zn    |Zn    Zn           |  
 |     |                   |  
 |     |                   |  
 |     |                   |  
 |     |                   |  
 |     |                   |  
 |     |                   |  
 |     |                   |  
 |     |                   |  
 |     .-------------------.  
 |    /                   /   
 |   /                   /    
 |  /                   /     
 | /                   /      
 |/                   /       
 *-------------------*        

Positions:
   0 Zn     0.000000    0.000000   12.539848    ( 0.0000,  0.0000,  0.0000)
   1 Zn     2.708658    0.000000   12.539848    ( 0.0000,  0.0000,  0.0000)
   2 Zn     5.417315    0.000000   12.539848    ( 0.0000,  0.0000,  0.0000)
   3 Zn     1.354329    2.345766   12.539848    ( 0.0000,  0.0000,  0.0000)
   4 Zn     4.062986    2.345766   12.539848    ( 0.0000,  0.0000,  0.0000)
   5 Zn     6.771644    2.345766   12.539848    ( 0.0000,  0.0000,  0.0000)
   6 Zn     0.000000    4.691532   12.539848    ( 0.0000,  0.0000,  0.0000)
   7 Zn     2.708658    4.691532   12.539848    ( 0.0000,  0.0000,  0.0000)
   8 Zn     5.417315    4.691532   12.539848    ( 0.0000,  0.0000,  0.0000)
   9 Zn     1.354329    7.037299   12.539848    ( 0.0000,  0.0000,  0.0000)
  10 Zn     4.062986    7.037299   12.539848    ( 0.0000,  0.0000,  0.0000)
  11 Zn     6.771644    7.037299   12.539848    ( 0.0000,  0.0000,  0.0000)
  12 Zn     0.000000    1.563844   15.000000    ( 0.0000,  0.0000,  0.0000)
  13 Zn     2.708658    1.563844   15.000000    ( 0.0000,  0.0000,  0.0000)
  14 Zn     5.417315    1.563844   15.000000    ( 0.0000,  0.0000,  0.0000)
  15 Zn     1.354329    3.909610   15.000000    ( 0.0000,  0.0000,  0.0000)
  16 Zn     4.062986    3.909610   15.000000    ( 0.0000,  0.0000,  0.0000)
  17 Zn     6.771644    3.909610   15.000000    ( 0.0000,  0.0000,  0.0000)
  18 Zn     0.000000    6.255377   15.000000    ( 0.0000,  0.0000,  0.0000)
  19 Zn     2.708658    6.255377   15.000000    ( 0.0000,  0.0000,  0.0000)
  20 Zn     5.417315    6.255377   15.000000    ( 0.0000,  0.0000,  0.0000)
  21 Zn     1.354329    8.601143   15.000000    ( 0.0000,  0.0000,  0.0000)
  22 Zn     4.062986    8.601143   15.000000    ( 0.0000,  0.0000,  0.0000)
  23 Zn     6.771644    8.601143   15.000000    ( 0.0000,  0.0000,  0.0000)
  24 Zn    -0.000000    0.002706   17.552572    ( 0.0000,  0.0000,  0.0000)
  25 Zn     2.708656    0.002706   17.552569    ( 0.0000,  0.0000,  0.0000)
  26 Zn     5.417316    0.002706   17.552569    ( 0.0000,  0.0000,  0.0000)
  27 Zn     1.354330    2.348403   17.552478    ( 0.0000,  0.0000,  0.0000)
  28 Zn     4.062986    2.348397   17.552479    ( 0.0000,  0.0000,  0.0000)
  29 Zn     6.771642    2.348403   17.552477    ( 0.0000,  0.0000,  0.0000)
  30 Zn    -0.000000    4.694231   17.552507    ( 0.0000,  0.0000,  0.0000)
  31 Zn     2.708655    4.694236   17.552513    ( 0.0000,  0.0000,  0.0000)
  32 Zn     5.417318    4.694236   17.552513    ( 0.0000,  0.0000,  0.0000)
  33 Zn     1.354328    7.040062   17.552459    ( 0.0000,  0.0000,  0.0000)
  34 Zn     4.062986    7.040064   17.552456    ( 0.0000,  0.0000,  0.0000)
  35 Zn     6.771644    7.040062   17.552459    ( 0.0000,  0.0000,  0.0000)

Unit cell:
           periodic     x           y           z      points  spacing
  1. axis:    yes    8.125973    0.000000    0.000000    42     0.1935
  2. axis:    yes    0.000000    9.383065    0.000000    49     0.1915
  3. axis:    no     0.000000    0.000000   30.000000   160     0.1875

  Lengths:   8.125973   9.383065  30.000000
  Angles:   90.000000  90.000000  90.000000

Effective grid spacing dv^(1/3) = 0.1908

     iter     time        total  log10-change:
                         energy   eigst   dens
iter:   1 13:13:34 -2779.760798   -0.56
iter:   2 13:14:07 -2779.227874   -1.09  -1.86
iter:   3 13:14:39 -2777.965397   -1.40  -1.91
iter:   4 13:15:12 -2777.582213   -1.58  -2.09
iter:   5 13:15:44 -2777.547334   -1.90  -2.35
iter:   6 13:16:17 -2777.539392c  -2.32  -2.41
iter:   7 13:16:49 -2777.406549c  -1.80  -2.44
iter:   8 13:17:22 -2777.410373c  -2.30  -3.14
iter:   9 13:17:54 -2777.413604c  -2.62  -3.20
iter:  10 13:18:26 -2777.415961c  -2.92  -3.13
iter:  11 13:18:59 -2777.418674c  -3.11  -3.06
iter:  12 13:19:31 -2777.417108c  -3.57  -2.97
iter:  13 13:20:04 -2777.414784c  -3.98  -3.02
iter:  14 13:20:36 -2777.414061c  -4.39  -3.15
iter:  15 13:21:09 -2777.411029c  -4.21  -3.18
iter:  16 13:21:41 -2777.411150c  -4.28  -3.53
iter:  17 13:22:14 -2777.410892c  -4.77  -3.57
iter:  18 13:22:46 -2777.410951c  -5.27  -3.63
iter:  19 13:23:19 -2777.410753c  -5.44  -3.64
iter:  20 13:23:51 -2777.410956c  -5.97  -3.78
iter:  21 13:24:24 -2777.410567c  -5.79  -3.73
iter:  22 13:24:56 -2777.410475c  -5.69  -3.84
iter:  23 13:25:29 -2777.410701c  -5.57  -4.04c
iter:  24 13:26:01 -2777.410630c  -6.26  -4.25c
iter:  25 13:26:33 -2777.410607c  -7.06  -4.31c
iter:  26 13:27:06 -2777.410665c  -6.91  -4.40c
iter:  27 13:27:38 -2777.410703c  -7.10  -4.48c
iter:  28 13:28:11 -2777.410719c  -7.40c -4.52c

Converged after 28 iterations.

Dipole moment: (0.000002, 12.707146, 0.025177) |e|*Ang

Energy contributions relative to reference atoms: (reference = -1759007.759505)

Kinetic:       +625.172784
Potential:     -519.353239
External:        +0.000000
XC:            -2881.137499
Entropy (-ST):   -0.283255
Local:           -1.951137
SIC:             +0.000000
--------------------------
Free energy:   -2777.552346
Extrapolated:  -2777.410719

Showing only first 2 kpts
 Kpt  Band  Eigenvalues  Occupancy
  0   214     -2.31469    1.99596
  0   215     -2.16962    1.98289
  0   216     -2.00031    1.91039
  0   217     -1.66053    0.83251

  1   214     -2.45718    1.99903
  1   215     -2.33765    1.99679
  1   216     -1.57099    0.45112
  1   217     -1.23428    0.01989


Fermi level: -1.69435

No gap
No difference between direct/indirect transitions

Forces in eV/Ang:
  0 Zn   -0.00000    0.00240   -0.10014
  1 Zn   -0.00003    0.00241   -0.10009
  2 Zn    0.00003    0.00241   -0.10009
  3 Zn   -0.00001    0.00231   -0.10004
  4 Zn    0.00000    0.00229   -0.10003
  5 Zn    0.00000    0.00231   -0.10005
  6 Zn   -0.00000    0.00243   -0.10018
  7 Zn   -0.00002    0.00243   -0.10017
  8 Zn    0.00002    0.00243   -0.10017
  9 Zn    0.00001    0.00247   -0.10007
 10 Zn    0.00000    0.00245   -0.10008
 11 Zn   -0.00001    0.00247   -0.10007
 12 Zn    0.00000   -0.00404    0.10323
 13 Zn    0.00002   -0.00402    0.10319
 14 Zn   -0.00003   -0.00402    0.10319
 15 Zn    0.00002   -0.00398    0.10317
 16 Zn    0.00000   -0.00399    0.10323
 17 Zn   -0.00001   -0.00397    0.10317
 18 Zn    0.00000   -0.00388    0.10323
 19 Zn    0.00001   -0.00385    0.10320
 20 Zn   -0.00001   -0.00386    0.10320
 21 Zn    0.00002   -0.00390    0.10318
 22 Zn   -0.00000   -0.00390    0.10318
 23 Zn   -0.00002   -0.00389    0.10318
 24 Zn    0.00000    0.00169    0.00019
 25 Zn    0.00005    0.00166    0.00026
 26 Zn   -0.00005    0.00167    0.00026
 27 Zn    0.00006    0.00185    0.00021
 28 Zn    0.00000    0.00188    0.00019
 29 Zn   -0.00005    0.00185    0.00021
 30 Zn    0.00000    0.00171    0.00023
 31 Zn    0.00007    0.00168    0.00023
 32 Zn   -0.00007    0.00168    0.00023
 33 Zn    0.00006    0.00155    0.00020
 34 Zn    0.00000    0.00149    0.00020
 35 Zn   -0.00006    0.00155    0.00020

Timing:                                      incl.     excl.
-------------------------------------------------------------------
Density initialized from wave functions:     8.580     8.580   0.3% |
 Symmetrize density:                         0.000     0.000   0.0% |
Forces:                                     53.298    53.298   1.7% ||
Hamiltonian:                                30.077     0.042   0.0% |
 Atomic:                                     0.696     0.342   0.0% |
  XC Correction:                             0.354     0.354   0.0% |
 Calculate atomic Hamiltonians:              5.132     5.132   0.2% |
 Communicate:                                0.017     0.017   0.0% |
 Initialize Hamiltonian:                     0.002     0.002   0.0% |
 Poisson:                                    0.036     0.036   0.0% |
 XC 3D grid:                                24.152     8.794   0.3% |
  VdW-DF integral:                          15.358     0.469   0.0% |
   Convolution:                              1.256     1.256   0.0% |
   FFT:                                      0.463     0.463   0.0% |
   gather:                                   3.315     3.315   0.1% |
   hmm1:                                     0.421     0.421   0.0% |
   hmm2:                                     0.685     0.685   0.0% |
   iFFT:                                     0.417     0.417   0.0% |
   potential:                                4.503     0.148   0.0% |
    collect:                                 0.223     0.223   0.0% |
    p1:                                      2.354     2.354   0.1% |
    p2:                                      1.252     1.252   0.0% |
    sum:                                     0.526     0.526   0.0% |
   splines:                                  3.829     3.829   0.1% |
LCAO initialization:                        29.746     0.050   0.0% |
 LCAO eigensolver:                           2.012     0.000   0.0% |
  Calculate projections:                     0.006     0.006   0.0% |
  DenseAtomicCorrection:                     0.006     0.006   0.0% |
  Distribute overlap matrix:                 0.158     0.158   0.0% |
  Orbital Layouts:                           0.075     0.075   0.0% |
  Potential matrix:                          1.760     1.760   0.1% |
  Sum over cells:                            0.006     0.006   0.0% |
 LCAO to grid:                              27.025    27.025   0.9% |
 Set positions (LCAO WFS):                   0.660     0.281   0.0% |
  Basic WFS set positions:                   0.001     0.001   0.0% |
  Basis functions set positions:             0.000     0.000   0.0% |
  P tci:                                     0.236     0.236   0.0% |
  ST tci:                                    0.121     0.121   0.0% |
  mktci:                                     0.020     0.020   0.0% |
PWDescriptor:                                0.054     0.054   0.0% |
Redistribute:                                0.006     0.006   0.0% |
SCF-cycle:                                2958.840    18.610   0.6% |
 Davidson:                                2103.814   491.378  15.9% |-----|
  Apply H:                                 219.207   214.420   6.9% |--|
   HMM T:                                    4.787     4.787   0.2% |
  Subspace diag:                           374.871     0.013   0.0% |
   calc_h_matrix:                          281.245    59.269   1.9% ||
    Apply H:                               221.975   217.187   7.0% |--|
     HMM T:                                  4.789     4.789   0.2% |
   diagonalize:                              2.848     2.848   0.1% |
   rotate_psi:                              90.766    90.766   2.9% ||
  calc. matrices:                          788.486   354.972  11.5% |----|
   Apply H:                                433.514   424.002  13.7% |----|
    HMM T:                                   9.511     9.511   0.3% |
  diagonalize:                              51.719    51.719   1.7% ||
  rotate_psi:                              178.152   178.152   5.8% |-|
 Density:                                  255.197     0.003   0.0% |
  Atomic density matrices:                   0.504     0.504   0.0% |
  Mix:                                     137.958   137.958   4.5% |-|
  Multipole moments:                         0.046     0.046   0.0% |
  Pseudo density:                          116.686   116.684   3.8% |-|
   Symmetrize density:                       0.002     0.002   0.0% |
 Hamiltonian:                              572.721     0.985   0.0% |
  Atomic:                                   15.319     7.531   0.2% |
   XC Correction:                            7.788     7.788   0.3% |
  Calculate atomic Hamiltonians:           111.987   111.987   3.6% ||
  Communicate:                               0.623     0.623   0.0% |
  Poisson:                                   0.819     0.819   0.0% |
  XC 3D grid:                              442.988   191.927   6.2% |-|
   VdW-DF integral:                        251.062    10.343   0.3% |
    Convolution:                            27.629    27.629   0.9% |
    FFT:                                    10.080    10.080   0.3% |
    gather:                                 72.966    72.966   2.4% ||
    hmm1:                                    9.467     9.467   0.3% |
    hmm2:                                   14.974    14.974   0.5% |
    iFFT:                                    9.148     9.148   0.3% |
    potential:                              96.454     3.414   0.1% |
     collect:                                4.851     4.851   0.2% |
     p1:                                    51.586    51.586   1.7% ||
     p2:                                    27.589    27.589   0.9% |
     sum:                                    9.013     9.013   0.3% |
    splines:                                 0.001     0.001   0.0% |
 Orthonormalize:                             8.498     0.001   0.0% |
  calc_s_matrix:                             1.248     1.248   0.0% |
  inverse-cholesky:                          0.070     0.070   0.0% |
  projections:                               5.082     5.082   0.2% |
  rotate_psi_s:                              2.096     2.096   0.1% |
Set symmetry:                                0.000     0.000   0.0% |
Other:                                      12.324    12.324   0.4% |
-------------------------------------------------------------------
Total:                                              3092.927 100.0%

Memory usage: 1.97 GiB
Date: Fri Apr 25 13:28:25 2025
