
  ___ ___ ___ _ _ _  
 |   |   |_  | | | | 
 | | | | | . | | | | 
 |__ |  _|___|_____|  25.1.1b1
 |___|_|             

User:   dmapa@x135.nifl.fysik.dtu.dk
Date:   Wed Apr 23 17:14:51 2025
Arch:   x86_64
Pid:    352825
CWD:    /home/cat/dmapa/gpaw/dissads/tree/surfaces/BEEF-Co/min_surf/relax
Python: 3.11.3
gpaw:   /home/cat/dmapa/bin/venv-asrlib/gpaw/gpaw (55eb60cdf0)
_gpaw:  /home/cat/dmapa/bin/venv-asrlib/gpaw/build/lib.linux-x86_64-broadwell_el8-cpython-311/
        _gpaw.cpython-311-x86_64-linux-gnu.so (55eb60cdf0)
ase:    /home/cat/dmapa/bin/venv-asrlib/ase/ase (version 3.26.0b1-f4168b42a5)
numpy:  /home/modules/software/SciPy-bundle/2023.07-gfbf-2023a/lib/python3.11/site-packages/numpy (version 1.25.1)
scipy:  /home/modules/software/SciPy-bundle/2023.07-gfbf-2023a/lib/python3.11/site-packages/scipy (version 1.11.1)
libxc:  6.2.2
units:  Angstrom and eV
cores: 24
OpenMP: False
OMP_NUM_THREADS: 1

Input parameters:
  kpts: {size: [4, 3, 1]}
  mixer: {backend: pulay,
          beta: 0.02,
          method: fullspin,
          nmaxold: 5,
          weight: 50.0}
  mode: {ecut: 500,
         name: pw}
  spinpol: True
  symmetry: off
  xc: BEEF-vdW

System changes: positions, numbers, cell, pbc, initial_charges, initial_magmoms 

Initialize ...

species:
  Co:
    name: Cobalt
    id: 339d20d5b0b93d2de9531a1bee871d91
    Z: 27.0
    valence: 9
    core: 18
    charge: 0.0
    file: /home/modules/software/GPAW-setups/24.11.0/Co.PBE.gz
    compensation charges: {type: gauss,
                           rc: 0.32,
                           lmax: 2}
    cutoffs: {filter: 1.87,
              core: 2.55}
    projectors:
      #              energy  rcut
      - 4s(2.00)    -5.469   1.005
      - 4p(0.00)    -1.277   1.058
      - 3d(7.00)    -8.205   1.005
      -  s          21.742   1.005
      -  p          25.934   1.058
      -  d          19.007   1.005
  
    # Using partial waves for Co as LCAO basis

Reference energy: -1364497.556606  # eV

Spin-polarized calculation.
Magnetic moment: 0.000000

Convergence criteria:
 Maximum [total energy] change in last 3 cyles: 0.0005 eV / valence electron
 Maximum integral of absolute [dens]ity change: 0.0001 electrons / valence electron
 Maximum integral of absolute [eigenst]ate change: 4e-08 eV^2 / valence electron
 Maximum number of scf [iter]ations: 333
 (Square brackets indicate name in SCF output, whereas a 'c' in
 the SCF output indicates the quantity has converged.)

Symmetries present (total): 1

  ( 1  0  0)
  ( 0  1  0)
  ( 0  0  1)

12 k-points: 4 x 3 x 1 Monkhorst-Pack grid
12 k-points in the irreducible part of the Brillouin zone
       k-points in crystal coordinates                weights
   0:    -0.37500000   -0.33333333    0.00000000          1/12
   1:    -0.37500000    0.00000000    0.00000000          1/12
   2:    -0.37500000    0.33333333    0.00000000          1/12
   3:    -0.12500000   -0.33333333    0.00000000          1/12
   4:    -0.12500000    0.00000000    0.00000000          1/12
   5:    -0.12500000    0.33333333    0.00000000          1/12
   6:     0.12500000   -0.33333333    0.00000000          1/12
   7:     0.12500000    0.00000000    0.00000000          1/12
   8:     0.12500000    0.33333333    0.00000000          1/12
   9:     0.37500000   -0.33333333    0.00000000          1/12
          ...
  11:     0.37500000    0.33333333    0.00000000          1/12

Wave functions: Plane wave expansion
  Cutoff energy: 500.000 eV
  Number of coefficients (min, max): 50045, 50125
  Pulay-stress correction: 0.000000 eV/Ang^3 (de/decut=0.000000)
  Using FFTW library
  ScaLapack parameters: grid=1x1, blocksize=None
  Wavefunction extrapolation:
    Improved wavefunction reuse through dual PAW basis 

Occupation numbers: Fermi-Dirac:
  width: 0.1000  # eV
 

Eigensolver
   Davidson(niter=2) 

Densities:
  Coarse grid: 40*45*160 grid
  Fine grid: 80*90*320 grid
  Total Charge: 0.000000 

Density mixing:
  Method: fullspin
  Backend: pulay
  Linear mixing parameter: 0.02
  old densities: 5
  Damping of long wavelength oscillations: 50 

Hamiltonian:
  XC and Coulomb potentials evaluated on a 80*90*320 grid
  Using the BEEF-vdW Exchange-Correlation functional
  External potential:
    NoExternalPotential
 

XC parameters: BEEF-vdW with 2 nearest neighbor stencil

Memory estimate:
  Process memory now: 3554.51 MiB
  Calculator: 357.59 MiB
    Density: 75.91 MiB
      Arrays: 38.45 MiB
      Localized functions: 26.47 MiB
      Mixer: 10.99 MiB
    Hamiltonian: 29.11 MiB
      Arrays: 28.56 MiB
      XC: 0.00 MiB
      Poisson: 0.00 MiB
      vbar: 0.54 MiB
    Wavefunctions: 252.57 MiB
      Arrays psit_nG: 152.21 MiB
      Eigensolver: 84.06 MiB
      Projections: 1.97 MiB
      Projectors: 2.87 MiB
      PW-descriptor: 11.46 MiB

Total number of cores used: 24
Parallelization over k-points: 12
Domain decomposition: 1 x 1 x 2

Number of atoms: 36
Number of atomic orbitals: 324
Number of bands in calculation: 199
Number of valence electrons: 324
Bands to converge: occupied

... initialized

Initializing position-dependent things.

Density initialized from atomic densities
Creating initial wave functions:
  199 bands from LCAO basis set

      .------------------.  
     /|                  |  
    / |                  |  
   /  |                  |  
  /   |                  |  
 *    |                  |  
 |    |                  |  
 |    |                  |  
 |    |                  |  
 |    |                  |  
 |    |                  |  
 |    |                  |  
 |    |                  |  
 |    |                  |  
 |    |                  |  
 |    |                  |  
 |    |                  |  
 |    | Co    Co     Co  |  
 |  Co|   Co    Co       |  
 |    |  Co    Co    Co  |  
 |  CCo    CCo   CCo     |  
 Co   CCo    CCo   Co    |  
 |    | Co    Co     Co  |  
 |Co  | Co    Co         |  
 | Co |   Co    Co       |  
 |   Co     Co    Co     |  
 Co   |Co     Co         |  
 |    |                  |  
 |    |                  |  
 |    |                  |  
 |    |                  |  
 |    |                  |  
 |    |                  |  
 |    |                  |  
 |    |                  |  
 |    |                  |  
 |    |                  |  
 |    .------------------.  
 |   /                  /   
 |  /                  /    
 | /                  /     
 |/                  /      
 *------------------*       

Positions:
   0 Co     0.000000    0.000000   12.960235    ( 0.0000,  0.0000,  0.0000)
   1 Co     2.515516    0.000000   12.960235    ( 0.0000,  0.0000,  0.0000)
   2 Co     5.031032    0.000000   12.960235    ( 0.0000,  0.0000,  0.0000)
   3 Co     1.257758    2.178501   12.960235    ( 0.0000,  0.0000,  0.0000)
   4 Co     3.773274    2.178501   12.960235    ( 0.0000,  0.0000,  0.0000)
   5 Co     6.288791    2.178501   12.960235    ( 0.0000,  0.0000,  0.0000)
   6 Co     0.000000    4.357002   12.960235    ( 0.0000,  0.0000,  0.0000)
   7 Co     2.515516    4.357002   12.960235    ( 0.0000,  0.0000,  0.0000)
   8 Co     5.031032    4.357002   12.960235    ( 0.0000,  0.0000,  0.0000)
   9 Co     1.257758    6.535503   12.960235    ( 0.0000,  0.0000,  0.0000)
  10 Co     3.773274    6.535503   12.960235    ( 0.0000,  0.0000,  0.0000)
  11 Co     6.288791    6.535503   12.960235    ( 0.0000,  0.0000,  0.0000)
  12 Co     0.000000    1.452334   15.000000    ( 0.0000,  0.0000,  0.0000)
  13 Co     2.515516    1.452334   15.000000    ( 0.0000,  0.0000,  0.0000)
  14 Co     5.031032    1.452334   15.000000    ( 0.0000,  0.0000,  0.0000)
  15 Co     1.257758    3.630835   15.000000    ( 0.0000,  0.0000,  0.0000)
  16 Co     3.773274    3.630835   15.000000    ( 0.0000,  0.0000,  0.0000)
  17 Co     6.288791    3.630835   15.000000    ( 0.0000,  0.0000,  0.0000)
  18 Co     0.000000    5.809336   15.000000    ( 0.0000,  0.0000,  0.0000)
  19 Co     2.515516    5.809336   15.000000    ( 0.0000,  0.0000,  0.0000)
  20 Co     5.031032    5.809336   15.000000    ( 0.0000,  0.0000,  0.0000)
  21 Co     1.257758    7.987837   15.000000    ( 0.0000,  0.0000,  0.0000)
  22 Co     3.773274    7.987837   15.000000    ( 0.0000,  0.0000,  0.0000)
  23 Co     6.288791    7.987837   15.000000    ( 0.0000,  0.0000,  0.0000)
  24 Co     0.000000    0.000035   17.031829    ( 0.0000,  0.0000,  0.0000)
  25 Co     2.515536    0.000034   17.031827    ( 0.0000,  0.0000,  0.0000)
  26 Co     5.031012    0.000034   17.031827    ( 0.0000,  0.0000,  0.0000)
  27 Co     1.257737    2.178561   17.031828    ( 0.0000,  0.0000,  0.0000)
  28 Co     3.773274    2.178561   17.031828    ( 0.0000,  0.0000,  0.0000)
  29 Co     6.288812    2.178561   17.031828    ( 0.0000,  0.0000,  0.0000)
  30 Co    -0.000000    4.357032   17.031820    ( 0.0000,  0.0000,  0.0000)
  31 Co     2.515537    4.357032   17.031818    ( 0.0000,  0.0000,  0.0000)
  32 Co     5.031012    4.357032   17.031818    ( 0.0000,  0.0000,  0.0000)
  33 Co     1.257737    6.535518   17.031824    ( 0.0000,  0.0000,  0.0000)
  34 Co     3.773274    6.535518   17.031824    ( 0.0000,  0.0000,  0.0000)
  35 Co     6.288811    6.535518   17.031824    ( 0.0000,  0.0000,  0.0000)

Unit cell:
           periodic     x           y           z      points  spacing
  1. axis:    yes    7.546549    0.000000    0.000000    40     0.1887
  2. axis:    yes    0.000000    8.714004    0.000000    45     0.1936
  3. axis:    no     0.000000    0.000000   30.000000   160     0.1875

  Lengths:   7.546549   8.714004  30.000000
  Angles:   90.000000  90.000000  90.000000

Effective grid spacing dv^(1/3) = 0.1899

     iter     time        total  log10-change:  magmom
                         energy   eigst   dens
iter:   1 17:16:19 -2603.743897                   +0.0000
iter:   2 17:16:58 -2601.448021   -0.89  -1.36    +0.0000
iter:   3 17:17:37 -2597.479214   -1.16  -1.38    +0.0000
iter:   4 17:18:15 -2596.721216   -0.50  -1.45    +0.0000
iter:   5 17:18:54 -2590.636580   -0.74  -1.43    +0.0000
iter:   6 17:19:33 -2590.653144   -1.75  -1.74    +0.0000
iter:   7 17:20:12 -2593.307591   -1.05  -1.75    -0.0000
iter:   8 17:20:51 -2590.429119   -1.12  -1.65    -0.0000
iter:   9 17:21:30 -2590.333323   -1.63  -1.87    -0.0000
iter:  10 17:22:09 -2590.403737c  -1.96  -2.01    -0.0000
iter:  11 17:22:48 -2590.408433c  -2.46  -2.13    -0.0000
iter:  12 17:23:27 -2590.375325c  -3.13  -2.15    -0.0000
iter:  13 17:24:06 -2590.370091c  -3.30  -2.18    +0.0000
iter:  14 17:24:45 -2590.394837c  -2.28  -2.21    +0.0000
iter:  15 17:25:24 -2590.393519c  -2.45  -2.31    +0.0000
iter:  16 17:26:03 -2590.367480c  -3.02  -2.46    +0.0000
iter:  17 17:26:42 -2590.378112c  -3.65  -2.50    +0.0000
iter:  18 17:27:21 -2590.352079c  -3.45  -2.48    +0.0000
iter:  19 17:28:00 -2590.338220c  -3.35  -2.54    +0.0000
iter:  20 17:28:38 -2590.338412c  -4.18  -2.59    +0.0000
iter:  21 17:29:17 -2590.336958c  -5.01  -2.60    +0.0000
iter:  22 17:29:56 -2590.346560c  -3.41  -2.62    +0.0000
iter:  23 17:30:35 -2590.340908c  -4.42  -2.65    +0.0000
iter:  24 17:31:14 -2590.333487c  -3.25  -2.69    +0.0000
iter:  25 17:31:53 -2590.343181c  -3.89  -2.87    +0.0000
iter:  26 17:32:32 -2590.334096c  -4.51  -2.73    +0.0000
iter:  27 17:33:11 -2590.334387c  -4.59  -2.90    +0.0000
iter:  28 17:33:50 -2590.336225c  -4.77  -2.94    +0.0000
iter:  29 17:34:29 -2590.341061c  -3.85  -3.01    +0.0000
iter:  30 17:35:08 -2590.339651c  -4.84  -3.09    +0.0000
iter:  31 17:35:47 -2590.337282c  -4.63  -3.11    +0.0000
iter:  32 17:36:26 -2590.336741c  -4.32  -3.19    +0.0000
iter:  33 17:37:05 -2590.335832c  -4.52  -3.19    +0.0000
iter:  34 17:37:44 -2590.335848c  -5.58  -3.31    +0.0000
iter:  35 17:38:23 -2590.336002c  -6.05  -3.35    +0.0000
iter:  36 17:39:02 -2590.336194c  -5.94  -3.37    +0.0000
iter:  37 17:39:41 -2590.338205c  -4.55  -3.41    +0.0000
iter:  38 17:40:20 -2590.338013c  -5.36  -3.53    +0.0000
iter:  39 17:40:59 -2590.337868c  -6.08  -3.54    +0.0000
iter:  40 17:41:38 -2590.337627c  -6.45  -3.54    +0.0000
iter:  41 17:42:17 -2590.336341c  -4.85  -3.56    +0.0000
iter:  42 17:42:55 -2590.336766c  -6.19  -3.66    +0.0000
iter:  43 17:43:34 -2590.336860c  -6.62  -3.67    +0.0000
iter:  44 17:44:13 -2590.337170c  -5.67  -3.68    +0.0000
iter:  45 17:44:52 -2590.337377c  -5.36  -3.73    +0.0000
iter:  46 17:45:31 -2590.337183c  -6.24  -3.82    +0.0000
iter:  47 17:46:10 -2590.337238c  -6.22  -3.78    +0.0000
iter:  48 17:46:49 -2590.337154c  -6.68  -3.91    +0.0000
iter:  49 17:47:28 -2590.337140c  -6.80  -3.96    +0.0000
iter:  50 17:48:07 -2590.337026c  -6.74  -4.05c   +0.0000
iter:  51 17:48:46 -2590.336943c  -6.74  -4.10c   +0.0000
iter:  52 17:49:25 -2590.336910c  -6.79  -4.17c   +0.0000
iter:  53 17:50:04 -2590.336888c  -7.25  -4.20c   +0.0000
iter:  54 17:50:43 -2590.336872c  -7.10  -4.22c   +0.0000
iter:  55 17:51:22 -2590.336859c  -7.22  -4.31c   +0.0000
iter:  56 17:52:01 -2590.336855c  -7.28  -4.35c   +0.0000
iter:  57 17:52:40 -2590.336865c  -7.41c -4.44c   +0.0000

Converged after 57 iterations.

Dipole moment: (-0.000000, 14.225043, 0.000509) |e|*Ang

Total magnetic moment: (0.000000, 0.000000, 0.000000)
Local magnetic moments:
   0 Co ( 0.000000,  0.000000, -0.000000)
   1 Co ( 0.000000,  0.000000, -0.000000)
   2 Co ( 0.000000,  0.000000, -0.000000)
   3 Co ( 0.000000,  0.000000,  0.000000)
   4 Co ( 0.000000,  0.000000, -0.000000)
   5 Co ( 0.000000,  0.000000,  0.000000)
   6 Co ( 0.000000,  0.000000, -0.000000)
   7 Co ( 0.000000,  0.000000,  0.000000)
   8 Co ( 0.000000,  0.000000,  0.000000)
   9 Co ( 0.000000,  0.000000, -0.000000)
  10 Co ( 0.000000,  0.000000, -0.000000)
  11 Co ( 0.000000,  0.000000,  0.000000)
  12 Co ( 0.000000,  0.000000,  0.000000)
  13 Co ( 0.000000,  0.000000,  0.000000)
  14 Co ( 0.000000,  0.000000, -0.000000)
  15 Co ( 0.000000,  0.000000,  0.000000)
  16 Co ( 0.000000,  0.000000,  0.000000)
  17 Co ( 0.000000,  0.000000,  0.000000)
  18 Co ( 0.000000,  0.000000, -0.000000)
  19 Co ( 0.000000,  0.000000, -0.000000)
  20 Co ( 0.000000,  0.000000, -0.000000)
  21 Co ( 0.000000,  0.000000, -0.000000)
  22 Co ( 0.000000,  0.000000,  0.000000)
  23 Co ( 0.000000,  0.000000,  0.000000)
  24 Co ( 0.000000,  0.000000, -0.000000)
  25 Co ( 0.000000,  0.000000,  0.000000)
  26 Co ( 0.000000,  0.000000,  0.000000)
  27 Co ( 0.000000,  0.000000,  0.000000)
  28 Co ( 0.000000,  0.000000, -0.000000)
  29 Co ( 0.000000,  0.000000,  0.000000)
  30 Co ( 0.000000,  0.000000, -0.000000)
  31 Co ( 0.000000,  0.000000,  0.000000)
  32 Co ( 0.000000,  0.000000,  0.000000)
  33 Co ( 0.000000,  0.000000, -0.000000)
  34 Co ( 0.000000,  0.000000, -0.000000)
  35 Co ( 0.000000,  0.000000,  0.000000)

Energy contributions relative to reference atoms: (reference = -1364497.556606)

Kinetic:       +694.775890
Potential:     -61
Forces in eV/Ang:
  0 Co    0.00000    0.00243    0.55555
  1 Co    0.00141    0.00237    0.55564
  2 Co   -0.00141    0.00237    0.55564
  3 Co   -0.00149    0.00417    0.55563
  4 Co    0.00000    0.00419    0.55560
  5 Co    0.00149    0.00417    0.55563
  6 Co   -0.00000    0.00210    0.55614
  7 Co    0.00143    0.00208    0.55627
  8 Co   -0.00143    0.00208    0.55627
  9 Co   -0.00146    0.00105    0.55587
 10 Co   -0.00000    0.00106    0.55587
 11 Co    0.00146    0.00105    0.55587
 12 Co    0.00000   -0.00518    0.00000
 13 Co    0.00135   -0.00508    0.00000
 14 Co   -0.00135   -0.00508    0.00000
 15 Co   -0.00140   -0.00653    0.00000
 16 Co    0.00000   -0.00653    0.00000
 17 Co    0.00140   -0.00653    0.00000
 18 Co    0.00000   -0.00538    0.00000
 19 Co    0.00139   -0.00529    0.00000
 20 Co   -0.00139   -0.00529    0.00000
 21 Co   -0.00141   -0.00322    0.00000
 22 Co    0.00000   -0.00326    0.00000
 23 Co    0.00141   -0.00322    0.00000
 24 Co    0.00000    0.00243   -0.55555
 25 Co    0.00141    0.00237   -0.55564
 26 Co   -0.00141    0.00237   -0.55564
 27 Co   -0.00149    0.00417   -0.55563
 28 Co    0.00000    0.00419   -0.55560
 29 Co    0.00149    0.00417   -0.55563
 30 Co   -0.00000    0.00210   -0.55614
 31 Co    0.00143    0.00208   -0.55627
 32 Co   -0.00143    0.00208   -0.55627
 33 Co   -0.00146    0.00105   -0.55587
 34 Co   -0.00000    0.00106   -0.55587
 35 Co    0.00146    0.00105   -0.55587

System changes: positions 

Initializing position-dependent things.

Timing:                              incl.     excl.
-----------------------------------------------------------
Forces:                              4.622     4.622   0.1% |
Hamiltonian:                         8.228     0.007   0.0% |
 Atomic:                             0.171     0.001   0.0% |
  XC Correction:                     0.170     0.170   0.0% |
 Calculate atomic Hamiltonians:      0.368     0.368   0.0% |
 Communicate:                        0.173     0.173   0.0% |
 Initialize Hamiltonian:             0.001     0.001   0.0% |
 Poisson:                            0.002     0.002   0.0% |
 XC 3D grid:                         7.507     1.321   0.0% |
  VdW-DF integral:                   6.186     0.114   0.0% |
   Convolution:                      0.274     0.274   0.0% |
   FFT:                              0.099     0.099   0.0% |
   gather:                           0.727     0.727   0.0% |
   hmm1:                             0.075     0.075   0.0% |
   hmm2:                             0.139     0.139   0.0% |
   iFFT:                             0.089     0.089   0.0% |
   potential:                        0.936     0.011   0.0% |
    collect:                         0.071     0.071   0.0% |
    p1:                              0.473     0.473   0.0% |
    p2:                              0.259     0.259   0.0% |
    sum:                             0.122     0.122   0.0% |
   splines:                          3.734     3.734   0.1% |
LCAO initialization:                24.810     0.050   0.0% |
 LCAO eigensolver:                   5.198     0.001   0.0% |
  Calculate projections:             0.000     0.000   0.0% |
  DenseAtomicCorrection:             0.000     0.000   0.0% |
  Distribute overlap matrix:         5.048     5.048   0.1% |
  Orbital Layouts:                   0.147     0.147   0.0% |
  Potential matrix:                  0.000     0.000   0.0% |
  Sum over cells:                    0.002     0.002   0.0% |
 LCAO to grid:                      18.969    18.969   0.3% |
 Set positions (LCAO WFS):           0.593     0.517   0.0% |
  Basic WFS set positions:           0.003     0.003   0.0% |
  Basis functions set positions:     0.000     0.000   0.0% |
  P tci:                             0.000     0.000   0.0% |
  ST tci:                            0.049     0.049   0.0% |
  mktci:                             0.023     0.023   0.0% |
PWDescriptor:                        0.047     0.047   0.0% |
Redistribute:                        0.000     0.000   0.0% |
SCF-cycle:                         747.441     0.218   0.0% |
 Davidson:                         478.476   125.190   2.2% ||
  Apply H:                          51.161    49.885   0.9% |
   HMM T:                            1.276     1.276   0.0% |
  Subspace diag:                    80.226     0.009   0.0% |
   calc_h_matrix:                   60.595    10.341   0.2% |
    Apply H:                        50.254    49.015   0.8% |
     HMM T:                          1.239     1.239   0.0% |
   diagonalize:                      2.274     2.274   0.0% |
   rotate_psi:                      17.347    17.347   0.3% |
  calc. matrices:                  165.612    65.463   1.1% |
   Apply H:                        100.149    97.663   1.7% ||
    HMM T:                           2.486     2.486   0.0% |
  diagonalize:                      23.312    23.312   0.4% |
  rotate_psi:                       32.975    32.975   0.6% |
 Density:                           60.494     0.001   0.0% |
  Atomic density matrices:           0.445     0.445   0.0% |
  Mix:                              24.538    24.538   0.4% |
  Multipole moments:                 0.023     0.023   0.0% |
  Pseudo density:                   35.487    28.081   0.5% |
   Symmetrize density:               7.406     7.406   0.1% |
 Hamiltonian:                      207.308     0.331   0.0% |
  Atomic:                            7.942     0.027   0.0% |
   XC Correction:                    7.915     7.915   0.1% |
  Calculate atomic Hamiltonians:    17.146    17.146   0.3% |
  Communicate:                       8.142     8.142   0.1% |
  Poisson:                           0.127     0.127   0.0% |
  XC 3D grid:                      173.619    61.255   1.1% |
   VdW-DF integral:                112.364     5.132   0.1% |
    Convolution:                    12.655    12.655   0.2% |
    FFT:                             4.180     4.180   0.1% |
    gather:                         32.491    32.491   0.6% |
    hmm1:                            3.800     3.800   0.1% |
    hmm2:                            6.733     6.733   0.1% |
    iFFT:                            4.045     4.045   0.1% |
    potential:                      43.329     0.720   0.0% |
     collect:                        3.273     3.273   0.1% |
     p1:                            21.307    21.307   0.4% |
     p2:                            12.169    12.169   0.2% |
     sum:                            5.859     5.859   0.1% |
    splines:                         0.000     0.000   0.0% |
 Orthonormalize:                     0.945     0.000   0.0% |
  calc_s_matrix:                     0.111     0.111   0.0% |
  inverse-cholesky:                  0.032     0.032   0.0% |
  projections:                       0.616     0.616   0.0% |
  rotate_psi_s:                      0.186     0.186   0.0% |
Set symmetry:                        0.002     0.002   0.0% |
Other:                            4985.255  4985.255  86.4% |----------------------------------|
-----------------------------------------------------------
Total:                                      5770.407 100.0%

Memory usage: 3.47 GiB
Date: Wed Apr 23 18:37:51 2025
2c  -4.49  -2.45    +0.0000
iter:   5 17:56:17 -2590.392904c  -4.24  -2.85    +0.0000
iter:   6 17:56:56 -2590.380870c  -3.11  -2.90    +0.0000
iter:   7 17:57:35 -2590.381898c  -4.05  -3.25    +0.0000
iter:   8 17:58:14 -2590.382411c  -4.87  -3.32    +0.0000
iter:   9 17:58:53 -2590.383041c  -4.89  -3.36    +0.0000
iter:  10 17:59:32 -2590.383008c  -5.47  -3.49    +0.0000
iter:  11 18:00:11 -2590.383266c  -5.25  -3.39    +0.0000
iter:  12 18:00:51 -2590.383143c  -5.74  -3.56    +0.0000
iter:  13 18:01:30 -2590.383351c  -5.33  -3.63    +0.0000
iter:  14 18:02:09 -2590.383637c  -5.32  -3.76    +0.0000
iter:  15 18:02:47 -2590.383544c  -5.65  -3.93    +0.0000
iter:  16 18:03:27 -2590.383476c  -6.46  -4.02c   +0.0000
iter:  17 18:04:05 -2590.383479c  -6.94  -4.01c   +0.0000
iter:  18 18:04:44 -2590.383261c  -6.44  -4.00c   +0.0000
iter:  19 18:05:24 -2590.383207c  -6.46  -4.06c   +0.0000
iter:  20 18:06:03 -2590.383231c  -6.33  -4.10c   +0.0000
iter:  21 18:06:42 -2590.383124c  -6.72  -4.15c   +0.0000
iter:  22 18:07:21 -2590.383140c  -6.92  -4.22c   +0.0000
iter:  23 18:08:00 -2590.383136c  -7.44c -4.16c   +0.0000

Converged after 23 iterations.

Dipole moment: (0.000000, 14.218506, 0.001173) |e|*Ang

Total magnetic moment: (0.000000, 0.000000, 0.000000)
Local magnetic moments:
   0 Co ( 0.000000,  0.000000, -0.000000)
   1 Co ( 0.000000,  0.000000, -0.000000)
   2 Co ( 0.000000,  0.000000, -0.000000)
   3 Co ( 0.000000,  0.000000,  0.000000)
   4 Co ( 0.000000,  0.000000, -0.000000)
   5 Co ( 0.000000,  0.000000,  0.000000)
   6 Co ( 0.000000,  0.000000,  0.000000)
   7 Co ( 0.000000,  0.000000,  0.000000)
   8 Co ( 0.000000,  0.000000,  0.000000)
   9 Co ( 0.000000,  0.000000, -0.000000)
  10 Co ( 0.000000,  0.000000, -0.000000)
  11 Co ( 0.000000,  0.000000,  0.000000)
  12 Co ( 0.000000,  0.000000,  0.000000)
  13 Co ( 0.000000,  0.000000,  0.000000)
  14 Co ( 0.000000,  0.000000,  0.000000)
  15 Co ( 0.000000,  0.000000,  0.000000)
  16 Co ( 0.000000,  0.000000,  0.000000)
  17 Co ( 0.000000,  0.000000,  0.000000)
  18 Co ( 0.000000,  0.000000, -0.000000)
  19 Co ( 0.000000,  0.000000, -0.000000)
  20 Co ( 0.000000,  0.000000, -0.000000)
  21 Co ( 0.000000,  0.000000, -0.000000)
  22 Co ( 0.000000,  0.000000, -0.000000)
  23 Co ( 0.000000,  0.000000,  0.000000)
  24 Co ( 0.000000,  0.000000,  0.000000)
  25 Co ( 0.000000,  0.000000,  0.000000)
  26 Co ( 0.000000,  0.000000,  0.000000)
  27 Co ( 0.000000,  0.000000,  0.000000)
  28 Co ( 0.000000,  0.000000, -0.000000)
  29 Co ( 0.000000,  0.000000,  0.000000)
  30 Co ( 0.000000,  0.000000, -0.000000)
  31 Co ( 0.000000,  0.000000,  0.000000)
  32 Co ( 0.000000,  0.000000,  0.000000)
  33 Co ( 0.000000,  0.000000, -0.000000)
  34 Co ( 0.000000,  0.000000, -0.000000)
  35 Co ( 0.000000,  0.000000,  0.000000)

Energy contributions relative to reference atoms: (reference = -1364497.556606)

Kinetic:       +696.794572
Potential:     -617.863610
External:        +0.000000
XC:            -2669.516836
Entropy (-ST):   -4.124762
Local:           +2.265120
SIC:             +0.000000
--------------------------
Free energy:   -2592.445517
Extrapolated:  -2590.383136

Spin contamination: 0.000000 electrons
Showing only first 2 kpts
                      Up                     Down
 Kpt  Band  Eigenvalues  Occupancy  Eigenvalues  Occupancy
  0   160     -2.30814    0.66164     -2.30814    0.66164
  0   161     -2.29730    0.63696     -2.29730    0.63696
  0   162     -2.28064    0.59765     -2.28064    0.59765
  0   163     -2.24799    0.51727     -2.24799    0.51727

  1   160     -2.24081    0.49934     -2.24081    0.49934
  1   161     -2.24080    0.49931     -2.24080    0.49931
  1   162     -2.22999    0.47233     -2.22999    0.47233
  1   163     -2.22998    0.47228     -2.22998    0.47228


Fermi level: -2.24108

No gap
No difference between direct/indirect transitions

Forces in eV/Ang:
  0 Co    0.00000    0.00220    0.55091
  1 Co    0.00135    0.00217    0.55106
  2 Co   -0.00135    0.00217    0.55106
  3 Co   -0.00157    0.00421    0.55113
  4 Co   -0.00000    0.00423    0.55115
  5 Co    0.00157    0.00421    0.55113
  6 Co   -0.00000    0.00268    0.55090
  7 Co    0.00136    0.00267    0.55104
  8 Co   -0.00136    0.00267    0.55104
  9 Co   -0.00156    0.00083    0.55096
 10 Co    0.00000    0.00085    0.55099
 11 Co    0.00156    0.00083    0.55096
 12 Co    0.00000   -0.00509   -0.07290
 13 Co    0.00124   -0.00498   -0.07287
 14 Co   -0.00124   -0.00498   -0.07287
 15 Co   -0.00149   -0.00639   -0.07300
 16 Co   -0.00000   -0.00643   -0.07310
 17 Co    0.00149   -0.00639   -0.07300
 18 Co   -0.00000   -0.00461   -0.07320
 19 Co    0.00124   -0.00450   -0.07297
 20 Co   -0.00124   -0.00450   -0.07297
 21 Co   -0.00149   -0.00344   -0.07290
 22 Co   -0.00000   -0.00347   -0.07292
 23 Co    0.00149   -0.00344   -0.07290
 24 Co    0.00000    0.00218   -0.47555
 25 Co    0.00110    0.00216   -0.47549
 26 Co   -0.00110    0.00216   -0.47549
 27 Co   -0.00126    0.00377   -0.47567
 28 Co   -0.00000    0.00378   -0.47542
 29 Co    0.00126    0.00377   -0.47567
 30 Co   -0.00000    0.00255   -0.47545
 31 Co    0.00110    0.00255   -0.47543
 32 Co   -0.00110    0.00255   -0.47543
 33 Co   -0.00125    0.00105   -0.47554
 34 Co   -0.00000    0.00106   -0.47542
 35 Co    0.00125    0.00105   -0.47554

System changes: positions 

Initializing position-dependent things.

Density initialized from wave functions
      .------------------.  
     /|                  |  
    / |                  |  
   /  |                  |  
  /   |                  |  
 *    |                  |  
 |    |                  |  
 |    |                  |  
 |    |                  |  
 |    |                  |  
 |    |                  |  
 |    |                  |  
 |    |                  |  
 |    |                  |  
 |    |                  |  
 |    |                  |  
 |    |                  |  
 |    | Co    Co     Co  |  
 |    |                  |  
 |    |  CCo   CCo   CoCo|  
 |  CCo    CCo   CCo     |  
 Co   CCo    CCo   Co    |  
 |    | Co    Co     Co  |  
 |Co  | Co    Co         |  
 | Co |   Co    Co       |  
 |   Co     Co    Co     |  
 Co   |Co     Co         |  
 |    |                  |  
 |    |                  |  
 |    |                  |  
 |    |                  |  
 |    |                  |  
 |    |                  |  
 |    |                  |  
 |    |                  |  
 |    |                  |  
 |    |                  |  
 |    .------------------.  
 |   /                  /   
 |  /                  /    
 | /                  /     
 |/                  /      
 *------------------*       

Positions:
   0 Co     0.000000    0.000000   12.960235    ( 0.0000,  0.0000,  0.0000)
   1 Co     2.515516    0.000000   12.960235    ( 0.0000,  0.0000,  0.0000)
   2 Co     5.031032    0.000000   12.960235    ( 0.0000,  0.0000,  0.0000)
   3 Co     1.257758    2.178501   12.960235    ( 0.0000,  0.0000,  0.0000)
   4 Co     3.773274    2.178501   12.960235    ( 0.0000,  0.0000,  0.0000)
   5 Co     6.288791    2.178501   12.960235    ( 0.0000,  0.0000,  0.0000)
   6 Co     0.000000    4.357002   12.960235    ( 0.0000,  0.0000,  0.0000)
   7 Co     2.515516    4.357002   12.960235    ( 0.0000,  0.0000,  0.0000)
   8 Co     5.031032    4.357002   12.960235    ( 0.0000,  0.0000,  0.0000)
   9 Co     1.257758    6.535503   12.960235    ( 0.0000,  0.0000,  0.0000)
  10 Co     3.773274    6.535503   12.960235    ( 0.0000,  0.0000,  0.0000)
  11 Co     6.288791    6.535503   12.960235    ( 0.0000,  0.0000,  0.0000)
  12 Co     0.000000    1.452334   15.000000    ( 0.0000,  0.0000,  0.0000)
  13 Co     2.515516    1.452334   15.000000    ( 0.0000,  0.0000,  0.0000)
  14 Co     5.031032    1.452334   15.000000    ( 0.0000,  0.0000,  0.0000)
  15 Co     1.257758    3.630835   15.000000    ( 0.0000,  0.0000,  0.0000)
  16 Co     3.773274    3.630835   15.000000    ( 0.0000,  0.0000,  0.0000)
  17 Co     6.288791    3.630835   15.000000    ( 0.0000,  0.0000,  0.0000)
  18 Co     0.000000    5.809336   15.000000    ( 0.0000,  0.0000,  0.0000)
  19 Co     2.515516    5.809336   15.000000    ( 0.0000,  0.0000,  0.0000)
  20 Co     5.031032    5.809336   15.000000    ( 0.0000,  0.0000,  0.0000)
  21 Co     1.257758    7.987837   15.000000    ( 0.0000,  0.0000,  0.0000)
  22 Co     3.773274    7.987837   15.000000    ( 0.0000,  0.0000,  0.0000)
  23 Co     6.288791    7.987837   15.000000    ( 0.0000,  0.0000,  0.0000)
  24 Co     0.000000    0.000418   16.947737    ( 0.0000,  0.0000,  0.0000)
  25 Co     2.515732    0.000414   16.947745    ( 0.0000,  0.0000,  0.0000)
  26 Co     5.030816    0.000414   16.947745    ( 0.0000,  0.0000,  0.0000)
  27 Co     1.257515    2.179225   16.947714    ( 0.0000,  0.0000,  0.0000)
  28 Co     3.773274    2.179228   16.947757    ( 0.0000,  0.0000,  0.0000)
  29 Co     6.289033    2.179225   16.947714    ( 0.0000,  0.0000,  0.0000)
  30 Co    -0.000000    4.357479   16.947745    ( 0.0000,  0.0000,  0.0000)
  31 Co     2.515733    4.357478   16.947746    ( 0.0000,  0.0000,  0.0000)
  32 Co     5.030816    4.357478   16.947746    ( 0.0000,  0.0000,  0.0000)
  33 Co     1.257517    6.535700   16.947732    ( 0.0000,  0.0000,  0.0000)
  34 Co     3.773274    6.535703   16.947754    ( 0.0000,  0.0000,  0.0000)
  35 Co     6.289032    6.535700   16.947732    ( 0.0000,  0.0000,  0.0000)

Unit cell:
           periodic     x           y           z      points  spacing
  1. axis:    yes    7.546549    0.000000    0.000000    40     0.1887
  2. axis:    yes    0.000000    8.714004    0.000000    45     0.1936
  3. axis:    no     0.000000    0.000000   30.000000   160     0.1875

  Lengths:   7.546549   8.714004  30.000000
  Angles:   90.000000  90.000000  90.000000

Effective grid spacing dv^(1/3) = 0.1899

     iter     time        total  log10-change:  magmom
                         energy   eigst   dens
iter:   1 18:09:01 -2601.054180   -0.48           +0.0000
iter:   2 18:09:40 -2592.090866   -1.34  -1.38    +0.0000
iter:   3 18:10:19 -2592.965131   -1.83  -1.78    +0.0000
iter:   4 18:10:58 -2591.653399   -2.47  -1.67    +0.0000
iter:   5 18:11:37 -2590.834454   -1.33  -1.87    +0.0000
iter:   6 18:12:16 -2590.758395   -1.59  -2.12    +0.0000
iter:   7 18:12:55 -2590.706880c  -2.60  -2.25    +0.0000
iter:   8 18:13:34 -2590.698999c  -3.30  -2.35    +0.0000
iter:   9 18:14:13 -2590.723853c  -2.28  -2.37    +0.0000
iter:  10 18:14:52 -2590.702914c  -3.55  -2.41    +0.0000
iter:  11 18:15:31 -2590.669640c  -3.40  -2.44    +0.0000
iter:  12 18:16:10 -2590.650370c  -3.05  -2.57    +0.0000
iter:  13 18:16:48 -2590.644417c  -3.16  -2.68    +0.0000
iter:  14 18:17:27 -2590.642907c  -3.57  -2.80    +0.0000
iter:  15 18:18:06 -2590.642263c  -3.90  -3.01    +0.0000
iter:  16 18:18:45 -2590.643928c  -4.52  -3.08    +0.0000
iter:  17 18:19:24 -2590.643100c  -4.94  -3.00    +0.0000
iter:  18 18:20:03 -2590.643022c  -5.39  -3.03    +0.0000
iter:  19 18:20:42 -2590.643482c  -5.07  -3.03    +0.0000
iter:  20 18:21:21 -2590.643267c  -5.74  -3.02    +0.0000
iter:  21 18:22:00 -2590.641512c  -4.97  -3.02    +0.0000
iter:  22 18:22:39 -2590.643378c  -4.33  -3.09    +0.0000
iter:  23 18:23:18 -2590.638906c  -4.19  -2.94    +0.0000
iter:  24 18:23:57 -2590.638506c  -4.90  -3.16    +0.0000
iter:  25 18:24:36 -2590.638496c  -5.61  -3.16    +0.0000
iter:  26 18:25:15 -2590.639863c  -4.29  -3.19    +0.0000
iter:  27 18:25:54 -2590.640513c  -4.54  -3.47    +0.0000
iter:  28 18:26:33 -2590.640531c  -5.29  -3.40    +0.0000
iter:  29 18:27:12 -2590.639839c  -5.35  -3.44    +0.0000
iter:  30 18:27:50 -2590.639628c  -5.71  -3.48    +0.0000
iter:  31 18:28:29 -2590.639278c  -5.52  -3.55    +0.0000
iter:  32 18:29:08 -2590.639070c  -5.53  -3.59    +0.0000
iter:  33 18:29:47 -2590.639211c  -5.79  -3.76    +0.0000
iter:  34 18:30:26 -2590.638900c  -5.85  -3.78    +0.0000
iter:  35 18:31:05 -2590.639053c  -6.53  -3.71    +0.0000
iter:  36 18:31:44 -2590.639041c  -6.78  -3.86    +0.0000
iter:  37 18:32:23 -2590.639050c  -6.83  -3.90    +0.0000
iter:  38 18:33:02 -2590.639006c  -6.10  -3.93    +0.0000
iter:  39 18:33:41 -2590.639064c  -6.38  -4.14c   +0.0000
iter:  40 18:34:20 -2590.638984c  -6.87  -4.29c   +0.0000
iter:  41 18:34:59 -2590.639113c  -7.05  -4.26c   +0.0000
iter:  42 18:35:38 -2590.639034c  -7.16  -4.30c   +0.0000
iter:  43 18:36:17 -2590.639051c  -6.98  -4.39c   +0.0000
iter:  44 18:36:56 -2590.639017c  -7.04  -4.47c   +0.0000
iter:  45 18:37:35 -2590.639016c  -7.48c -4.57c   +0.0000

Converged after 45 iterations.

Dipole moment: (-0.000000, 14.137515, 0.006577) |e|*Ang

Total magnetic moment: (0.000000, 0.000000, 0.000000)
Local magnetic moments:
   0 Co ( 0.000000,  0.000000,  0.000000)
   1 Co ( 0.000000,  0.000000, -0.000000)
   2 Co ( 0.000000,  0.000000,  0.000000)
   3 Co ( 0.000000,  0.000000,  0.000000)
   4 Co ( 0.000000,  0.000000,  0.000000)
   5 Co ( 0.000000,  0.000000,  0.000000)
   6 Co ( 0.000000,  0.000000,  0.000000)
   7 Co ( 0.000000,  0.000000,  0.000000)
   8 Co ( 0.000000,  0.000000,  0.000000)
   9 Co ( 0.000000,  0.000000, -0.000000)
  10 Co ( 0.000000,  0.000000, -0.000000)
  11 Co ( 0.000000,  0.000000,  0.000000)
  12 Co ( 0.000000,  0.000000,  0.000000)
  13 Co ( 0.000000,  0.000000,  0.000000)
  14 Co ( 0.000000,  0.000000,  0.000000)
  15 Co ( 0.000000,  0.000000,  0.000000)
  16 Co ( 0.000000,  0.000000,  0.000000)
  17 Co ( 0.000000,  0.000000,  0.000000)
  18 Co ( 0.000000,  0.000000,  0.000000)
  19 Co ( 0.000000,  0.000000, -0.000000)
  20 Co ( 0.000000,  0.000000,  0.000000)
  21 Co ( 0.000000,  0.000000, -0.000000)
  22 Co ( 0.000000,  0.000000, -0.000000)
  23 Co ( 0.000000,  0.000000,  0.000000)
  24 Co ( 0.000000,  0.000000,  0.000000)
  25 Co ( 0.000000,  0.000000,  0.000000)
  26 Co ( 0.000000,  0.000000,  0.000000)
  27 Co ( 0.000000,  0.000000,  0.000000)
  28 Co ( 0.000000,  0.000000,  0.000000)
  29 Co ( 0.000000,  0.000000,  0.000000)
  30 Co ( 0.000000,  0.000000,  0.000000)
  31 Co ( 0.000000,  0.000000,  0.000000)
  32 Co ( 0.000000,  0.000000,  0.000000)
  33 Co ( 0.000000,  0.000000, -0.000000)
  34 Co ( 0.000000,  0.000000, -0.000000)
  35 Co ( 0.000000,  0.000000,  0.000000)

Energy contributions relative to reference atoms: (reference = -1364497.556606)

Kinetic:       +718.383590
Potential:     -635.439483
External:        +0.000000
XC:            -2673.947704
Entropy (-ST):   -4.106996
Local:           +2.418078
SIC:             +0.000000
--------------------------
Free energy:   -2592.692514
Extrapolated:  -2590.639016

Spin contamination: 0.000000 electrons
Showing only first 2 kpts
                      Up                     Down
 Kpt  Band  Eigenvalues  Occupancy  Eigenvalues  Occupancy
  0   160     -2.30359    0.65890     -2.30359    0.65890
  0   161     -2.28309    0.61144     -2.28309    0.61144
  0   162     -2.27951    0.60292     -2.27951    0.60292
  0   163     -2.23129    0.48384     -2.23129    0.48384

  1   160     -2.26115    0.55822     -2.26115    0.55822
  1   161     -2.24514    0.51846     -2.24514    0.51846
  1   162     -2.22827    0.47631     -2.22827    0.47631
  1   163     -2.22825    0.47627     -2.22825    0.47627


Fermi level: -2.23775

No gap
No difference between direct/indirect transitions

Forces in eV/Ang:
  0 Co    0.00000    0.00190    0.50305
  1 Co    0.00154    0.00189    0.50321
  2 Co   -0.00154    0.00189    0.50321
  3 Co   -0.00154    0.00380    0.50311
  4 Co   -0.00000    0.00377    0.50320
  5 Co    0.00154    0.00380    0.50311
  6 Co    0.00000    0.00215    0.50305
  7 Co    0.00154    0.00219    0.50325
  8 Co   -0.00154    0.00219    0.50325
  9 Co   -0.00151    0.00044    0.50318
 10 Co   -0.00000    0.00041    0.50324
 11 Co    0.00151    0.00044    0.50318
 12 Co    0.00000   -0.00365   -0.47192
 13 Co    0.00122   -0.00341   -0.47123
 14 Co   -0.00122   -0.00341   -0.47123
 15 Co   -0.00126   -0.00487   -0.47226
 16 Co   -0.00000   -0.00505   -0.47255
 17 Co    0.00126   -0.00487   -0.47226
 18 Co    0.00000   -0.00327   -0.47277
 19 Co    0.00122   -0.00302   -0.47214
 20 Co   -0.00122   -0.00302   -0.47214
 21 Co   -0.00124   -0.00181   -0.47152
 22 Co    0.00000   -0.00202   -0.47186
 23 Co    0.00124   -0.00181   -0.47152
 24 Co   -0.00000    0.00141   -0.03502
 25 Co   -0.00014    0.00139   -0.03519
 26 Co    0.00014    0.00139   -0.03519
 27 Co    0.00021    0.00108   -0.03474
 28 Co    0.00000    0.00107   -0.03511
 29 Co   -0.00021    0.00108   -0.03474
 30 Co    0.00000    0.00110   -0.03488
 31 Co   -0.00014    0.00107   -0.03494
 32 Co    0.00014    0.00107   -0.03494
 33 Co    0.00023    0.00154   -0.03486
 34 Co   -0.00000    0.00154   -0.03511
 35 Co   -0.00023    0.00154   -0.03486

Timing:                                      incl.     excl.
-------------------------------------------------------------------
Density initialized from wave functions:     6.219     6.219   0.1% |
 Symmetrize density:                         0.000     0.000   0.0% |
Forces:                                     41.359    41.359   0.8% |
Hamiltonian:                                26.296     0.036   0.0% |
 Atomic:                                     1.075     0.561   0.0% |
  XC Correction:                             0.514     0.514   0.0% |
 Calculate atomic Hamiltonians:              3.289     3.289   0.1% |
 Communicate:                                0.007     0.007   0.0% |
 Initialize Hamiltonian:                     0.002     0.002   0.0% |
 Poisson:                                    0.024     0.024   0.0% |
 XC 3D grid:                                21.863    10.723   0.2% |
  VdW-DF integral:                          11.140     0.309   0.0% |
   Convolution:                              0.826     0.826   0.0% |
   FFT:                                      0.280     0.280   0.0% |
   gather:                                   2.099     2.099   0.0% |
   hmm1:                                     0.275     0.275   0.0% |
   hmm2:                                     0.472     0.472   0.0% |
   iFFT:                                     0.268     0.268   0.0% |
   potential:                                2.882     0.098   0.0% |
    collect:                                 0.145     0.145   0.0% |
    p1:                                      1.565     1.565   0.0% |
    p2:                                      0.823     0.823   0.0% |
    sum:                                     0.250     0.250   0.0% |
   splines:                                  3.729     3.729   0.1% |
LCAO initialization:                        42.554     0.049   0.0% |
 LCAO eigensolver:                           5.132     0.001   0.0% |
  Calculate projections:                     0.008     0.008   0.0% |
  DenseAtomicCorrection:                     0.013     0.013   0.0% |
  Distribute overlap matrix:                 0.406     0.406   0.0% |
  Orbital Layouts:                           0.149     0.149   0.0% |
  Potential matrix:                          4.541     4.541   0.1% |
  Sum over cells:                            0.013     0.013   0.0% |
 LCAO to grid:                              36.676    36.676   0.7% |
 Set positions (LCAO WFS):                   0.697     0.362   0.0% |
  Basic WFS set positions:                   0.001     0.001   0.0% |
  Basis functions set positions:             0.000     0.000   0.0% |
  P tci:                                     0.180     0.180   0.0% |
  ST tci:                                    0.131     0.131   0.0% |
  mktci:                                     0.022     0.022   0.0% |
PWDescriptor:                                0.048     0.048   0.0% |
Redistribute:                                0.005     0.005   0.0% |
SCF-cycle:                                4845.623    16.115   0.3% |
 Davidson:                                3516.879   977.018  19.6% |-------|
  Apply H:                                 371.965   363.448   7.3% |--|
   HMM T:                                    8.516     8.516   0.2% |
  Subspace diag:                           591.688     0.037   0.0% |
   calc_h_matrix:                          453.442    83.493   1.7% ||
    Apply H:                               369.949   361.285   7.3% |--|
     HMM T:                                  8.664     8.664   0.2% |
   diagonalize:                              4.507     4.507   0.1% |
   rotate_psi:                             133.704   133.704   2.7% ||
  calc. matrices:                         1248.568   515.393  10.3% |---|
   Apply H:                                733.175   716.497  14.4% |-----|
    HMM T:                                  16.678    16.678   0.3% |
  diagonalize:                              66.559    66.559   1.3% ||
  rotate_psi:                              261.080   261.080   5.2% |-|
 Density:                                  382.184     0.003   0.0% |
  Atomic density matrices:                   1.011     1.011   0.0% |
  Mix:                                     175.651   175.651   3.5% ||
  Multipole moments:                         0.065     0.065   0.0% |
  Pseudo density:                          205.454   205.451   4.1% |-|
   Symmetrize density:                       0.003     0.003   0.0% |
 Hamiltonian:                              922.189     1.355   0.0% |
  Atomic:                                   44.388    23.422   0.5% |
   XC Correction:                           20.966    20.966   0.4% |
  Calculate atomic Hamiltonians:           133.359   133.359   2.7% ||
  Communicate:                               0.071     0.071   0.0% |
  Poisson:                                   0.980     0.980   0.0% |
  XC 3D grid:                              742.036   440.720   8.8% |---|
   VdW-DF integral:                        301.315    12.437   0.2% |
    Convolution:                            33.570    33.570   0.7% |
    FFT:                                    11.249    11.249   0.2% |
    gather:                                 84.625    84.625   1.7% ||
    hmm1:                                   11.678    11.678   0.2% |
    hmm2:                                   19.276    19.276   0.4% |
    iFFT:                                   10.967    10.967   0.2% |
    potential:                             117.513     4.270   0.1% |
     collect:                                5.904     5.904   0.1% |
     p1:                                    63.097    63.097   1.3% ||
     p2:                                    33.394    33.394   0.7% |
     sum:                                   10.847    10.847   0.2% |
    splines:                                 0.001     0.001   0.0% |
 Orthonormalize:                             8.257     0.001   0.0% |
  calc_s_matrix:                             1.008     1.008   0.0% |
  inverse-cholesky:                          0.063     0.063   0.0% |
  projections:                               5.526     5.526   0.1% |
  rotate_psi_s:                              1.658     1.658   0.0% |
Set symmetry:                                0.000     0.000   0.0% |
Other:                                      18.504    18.504   0.4% |
-------------------------------------------------------------------
Total:                                              4980.608 100.0%

Memory usage: 3.47 GiB
Date: Wed Apr 23 18:37:52 2025
