
  ___ ___ ___ _ _ _  
 |   |   |_  | | | | 
 | | | | | . | | | | 
 |__ |  _|___|_____|  25.1.1b1
 |___|_|             

User:   dmapa@x135.nifl.fysik.dtu.dk
Date:   Wed Apr 23 07:06:24 2025
Arch:   x86_64
Pid:    352825
CWD:    /home/cat/dmapa/gpaw/dissads/tree/surfaces/BEEF-Ag/min_surf/relax
Python: 3.11.3
gpaw:   /home/cat/dmapa/bin/venv-asrlib/gpaw/gpaw (55eb60cdf0)
_gpaw:  /home/cat/dmapa/bin/venv-asrlib/gpaw/build/lib.linux-x86_64-broadwell_el8-cpython-311/
        _gpaw.cpython-311-x86_64-linux-gnu.so (55eb60cdf0)
ase:    /home/cat/dmapa/bin/venv-asrlib/ase/ase (version 3.26.0b1-f4168b42a5)
numpy:  /home/modules/software/SciPy-bundle/2023.07-gfbf-2023a/lib/python3.11/site-packages/numpy (version 1.25.1)
scipy:  /home/modules/software/SciPy-bundle/2023.07-gfbf-2023a/lib/python3.11/site-packages/scipy (version 1.11.1)
libxc:  6.2.2
units:  Angstrom and eV
cores: 24
OpenMP: False
OMP_NUM_THREADS: 1

Input parameters:
  kpts: {size: [4, 3, 1]}
  mixer: {backend: pulay,
          beta: 0.02,
          method: separate,
          nmaxold: 5,
          weight: 50.0}
  mode: {ecut: 500,
         name: pw}
  spinpol: False
  xc: BEEF-vdW

System changes: positions, numbers, cell, pbc, initial_charges, initial_magmoms 

Initialize ...

species:
  Ag:
    name: Silver
    id: 33ddeab48f408598355e2011f1241e14
    Z: 47.0
    valence: 17
    core: 30
    charge: 0.0
    file: /home/modules/software/GPAW-setups/24.11.0/Ag.PBE.gz
    compensation charges: {type: gauss,
                           rc: 0.40,
                           lmax: 2}
    cutoffs: {filter: 2.35,
              core: 2.19}
    projectors:
      #              energy  rcut
      - 5s(1.00)    -4.401   1.286
      - 4p(6.00)   -58.577   1.328
      - 5p(0.00)    -0.738   1.328
      - 4d(10.00)    -7.446   1.180
      -  s          22.811   1.286
      -  d          19.766   1.180
  
    # Using partial waves for Ag as LCAO basis

Reference energy: -5205521.748734  # eV

Spin-paired calculation

Convergence criteria:
 Maximum [total energy] change in last 3 cyles: 0.0005 eV / valence electron
 Maximum integral of absolute [dens]ity change: 0.0001 electrons / valence electron
 Maximum integral of absolute [eigenst]ate change: 4e-08 eV^2 / valence electron
 Maximum number of scf [iter]ations: 333
 (Square brackets indicate name in SCF output, whereas a 'c' in
 the SCF output indicates the quantity has converged.)

Symmetries present (total): 2

  ( 1  0  0)  (-1  0  0)
  ( 0  1  0)  ( 0  1  0)
  ( 0  0  1)  ( 0  0  1)

12 k-points: 4 x 3 x 1 Monkhorst-Pack grid
4 k-points in the irreducible part of the Brillouin zone
       k-points in crystal coordinates                weights
   0:     0.12500000    0.00000000    0.00000000          2/12
   1:     0.12500000    0.33333333    0.00000000          4/12
   2:     0.37500000    0.00000000    0.00000000          2/12
   3:     0.37500000    0.33333333    0.00000000          4/12

Wave functions: Plane wave expansion
  Cutoff energy: 500.000 eV
  Number of coefficients (min, max): 71369, 71499
  Pulay-stress correction: 0.000000 eV/Ang^3 (de/decut=0.000000)
  Using FFTW library
  ScaLapack parameters: grid=1x1, blocksize=None
  Wavefunction extrapolation:
    Improved wavefunction reuse through dual PAW basis 

Occupation numbers: Fermi-Dirac:
  width: 0.1000  # eV
 

Eigensolver
   Davidson(niter=2) 

Densities:
  Coarse grid: 48*54*160 grid
  Fine grid: 96*108*320 grid
  Total Charge: 0.000000 

Density mixing:
  Method: separate
  Backend: pulay
  Linear mixing parameter: 0.02
  old densities: 5
  Damping of long wavelength oscillations: 50 

Hamiltonian:
  XC and Coulomb potentials evaluated on a 96*108*320 grid
  Using the BEEF-vdW Exchange-Correlation functional
  External potential:
    NoExternalPotential
 

XC parameters: BEEF-vdW with 2 nearest neighbor stencil

Memory estimate:
  Process memory now: 2638.79 MiB
  Calculator: 216.48 MiB
    Density: 31.69 MiB
      Arrays: 13.76 MiB
      Localized functions: 12.59 MiB
      Mixer: 5.34 MiB
    Hamiltonian: 9.25 MiB
      Arrays: 9.00 MiB
      XC: 0.00 MiB
      Poisson: 0.00 MiB
      vbar: 0.26 MiB
    Wavefunctions: 175.53 MiB
      Arrays psit_nG: 67.64 MiB
      Eigensolver: 89.68 MiB
      Projections: 0.61 MiB
      Projectors: 1.36 MiB
      PW-descriptor: 16.23 MiB

Total number of cores used: 24
Parallelization over k-points: 4
Domain decomposition: 1 x 2 x 3

Number of atoms: 36
Number of atomic orbitals: 432
Number of bands in calculation: 372
Number of valence electrons: 612
Bands to converge: occupied

... initialized

Initializing position-dependent things.

Density initialized from atomic densities
Creating initial wave functions:
  372 bands from LCAO basis set

       .---------------------.  
      /|                     |  
     / |                     |  
    /  |                     |  
   /   |                     |  
  /    |                     |  
 *     |                     |  
 |     |                     |  
 |     |                     |  
 |     |                     |  
 |     |                     |  
 |     |                     |  
 |     |                     |  
 |     |                     |  
 |     |                     |  
 |     |                     |  
 |     |                     |  
 |     | Ag      Ag     Ag   |  
 |  Ag |   Ag      Ag        |  
 |     |  Ag     Ag      Ag  |  
 |    Ag     Ag      Ag      |  
 Ag  Ag|Ag  Ag  Ag  Ag       |  
 |     Ag      Ag     Ag     |  
 |    Ag     Ag      Ag      |  
 |Ag   |AAg    AgAg    Ag    |  
 |     |                     |  
 | Ag  |  Ag      Ag         |  
 |   Ag|     Ag     Ag       |  
 |     |                     |  
 |     |                     |  
 |     |                     |  
 |     |                     |  
 |     |                     |  
 |     |                     |  
 |     |                     |  
 |     |                     |  
 |     |                     |  
 |     .---------------------.  
 |    /                     /   
 |   /                     /    
 |  /                     /     
 | /                     /      
 |/                     /       
 *---------------------*        

Positions:
   0 Ag     1.502101    0.867238   12.547080    ( 0.0000,  0.0000,  0.0000)
   1 Ag     4.506303    0.867238   12.547080    ( 0.0000,  0.0000,  0.0000)
   2 Ag     7.510504    0.867238   12.547080    ( 0.0000,  0.0000,  0.0000)
   3 Ag     0.000000    3.468953   12.547080    ( 0.0000,  0.0000,  0.0000)
   4 Ag     3.004202    3.468953   12.547080    ( 0.0000,  0.0000,  0.0000)
   5 Ag     6.008404    3.468953   12.547080    ( 0.0000,  0.0000,  0.0000)
   6 Ag     1.502101    6.070668   12.547080    ( 0.0000,  0.0000,  0.0000)
   7 Ag     4.506303    6.070668   12.547080    ( 0.0000,  0.0000,  0.0000)
   8 Ag     7.510504    6.070668   12.547080    ( 0.0000,  0.0000,  0.0000)
   9 Ag     0.000000    8.672383   12.547080    ( 0.0000,  0.0000,  0.0000)
  10 Ag     3.004202    8.672383   12.547080    ( 0.0000,  0.0000,  0.0000)
  11 Ag     6.008404    8.672383   12.547080    ( 0.0000,  0.0000,  0.0000)
  12 Ag     0.000000    1.734477   15.000000    ( 0.0000,  0.0000,  0.0000)
  13 Ag     3.004202    1.734477   15.000000    ( 0.0000,  0.0000,  0.0000)
  14 Ag     6.008404    1.734477   15.000000    ( 0.0000,  0.0000,  0.0000)
  15 Ag     1.502101    4.336192   15.000000    ( 0.0000,  0.0000,  0.0000)
  16 Ag     4.506303    4.336192   15.000000    ( 0.0000,  0.0000,  0.0000)
  17 Ag     7.510504    4.336192   15.000000    ( 0.0000,  0.0000,  0.0000)
  18 Ag     0.000000    6.937907   15.000000    ( 0.0000,  0.0000,  0.0000)
  19 Ag     3.004202    6.937907   15.000000    ( 0.0000,  0.0000,  0.0000)
  20 Ag     6.008404    6.937907   15.000000    ( 0.0000,  0.0000,  0.0000)
  21 Ag     1.502101    9.539622   15.000000    ( 0.0000,  0.0000,  0.0000)
  22 Ag     4.506303    9.539622   15.000000    ( 0.0000,  0.0000,  0.0000)
  23 Ag     7.510504    9.539622   15.000000    ( 0.0000,  0.0000,  0.0000)
  24 Ag     0.000000    0.000000   17.452920    ( 0.0000,  0.0000,  0.0000)
  25 Ag     3.004202    0.000000   17.452920    ( 0.0000,  0.0000,  0.0000)
  26 Ag     6.008404    0.000000   17.452920    ( 0.0000,  0.0000,  0.0000)
  27 Ag     1.502101    2.601715   17.452920    ( 0.0000,  0.0000,  0.0000)
  28 Ag     4.506303    2.601715   17.452920    ( 0.0000,  0.0000,  0.0000)
  29 Ag     7.510504    2.601715   17.452920    ( 0.0000,  0.0000,  0.0000)
  30 Ag     0.000000    5.203430   17.452920    ( 0.0000,  0.0000,  0.0000)
  31 Ag     3.004202    5.203430   17.452920    ( 0.0000,  0.0000,  0.0000)
  32 Ag     6.008404    5.203430   17.452920    ( 0.0000,  0.0000,  0.0000)
  33 Ag     1.502101    7.805145   17.452920    ( 0.0000,  0.0000,  0.0000)
  34 Ag     4.506303    7.805145   17.452920    ( 0.0000,  0.0000,  0.0000)
  35 Ag     7.510504    7.805145   17.452920    ( 0.0000,  0.0000,  0.0000)

Unit cell:
           periodic     x           y           z      points  spacing
  1. axis:    yes    9.012605    0.000000    0.000000    48     0.1878
  2. axis:    yes    0.000000   10.406860    0.000000    54     0.1927
  3. axis:    no     0.000000    0.000000   30.000000   160     0.1875

  Lengths:   9.012605  10.406860  30.000000
  Angles:   90.000000  90.000000  90.000000

Effective grid spacing dv^(1/3) = 0.1893

     iter     time        total  log10-change:
                         energy   eigst   dens
iter:   1 07:07:29 -5334.410365
iter:   2 07:07:53 -5334.646769   -1.33  -1.78
iter:   3 07:08:18 -5334.913292   -1.75  -1.78
iter:   4 07:08:42 -5334.404205   -1.78  -1.73
iter:   5 07:09:06 -5334.277770   -2.27  -2.14
iter:   6 07:09:30 -5334.374030c  -2.47  -2.15
iter:   7 07:09:54 -5334.402314c  -2.65  -2.42
iter:   8 07:10:18 -5334.297290c  -2.84  -2.62
iter:   9 07:10:42 -5334.302761c  -3.24  -3.10
iter:  10 07:11:06 -5334.324403c  -3.33  -2.98
iter:  11 07:11:30 -5334.297376c  -3.65  -3.25
iter:  12 07:11:54 -5334.298545c  -4.02  -3.74
iter:  13 07:12:18 -5334.295720c  -4.23  -3.65
iter:  14 07:12:42 -5334.295856c  -4.53  -3.77
iter:  15 07:13:06 -5334.295783c  -4.77  -3.81
iter:  16 07:13:30 -5334.295547c  -5.01  -3.80
iter:  17 07:13:54 -5334.295469c  -5.24  -3.80
iter:  18 07:14:18 -5334.295459c  -5.49  -3.86
iter:  19 07:14:42 -5334.295513c  -5.73  -3.93
iter:  20 07:15:07 -5334.295495c  -5.96  -3.98
iter:  21 07:15:31 -5334.295464c  -6.16  -4.00
iter:  22 07:15:55 -5334.295560c  -6.31  -4.03c
iter:  23 07:16:19 -5334.295555c  -6.70  -4.05c
iter:  24 07:16:43 -5334.295411c  -6.24  -4.06c
iter:  25 07:17:07 -5334.295522c  -6.28  -4.09c
iter:  26 07:17:31 -5334.295438c  -6.38  -4.17c
iter:  27 07:17:55 -5334.295437c  -7.45c -4.31c

Converged after 27 iterations.

Dipole moment: (-0.000000, -0.029991, 0.000000) |e|*Ang

Energy contributions relative to reference atoms: (reference = -5205521.748734)

Kinetic:       +845.487328
Potential:     -825.366517
External:        +0.000000
XC:            -5356.902000
Entropy (-ST):   -0.367588
Local:           +2.669545
SIC:             +0.000000
--------------------------
Free energy:   -5334.479231
Extrapolated:  -5334.295437

Showing only first 2 kpts
 Kpt  Band  Eigenvalues  Occupancy
  0   304     -2.54930    1.99935
  0   305     -1.63983    0.51542
  0   306     -1.63982    0.51539
  0   307     -1.59322    0.35774

  1   304     -2.48748    1.99880
  1   305     -2.35603    1.99554
  1   306     -1.54517    0.23747
  1   307     -1.51713    0.18476


Fermi level: -1.74562

No gap
No difference between direct/indirect transitions

Forces in eV/Ang:
  0 Ag   -0.00000   -0.00063   -0.01282
  1 Ag    0.00000   -0.00063   -0.01282
  2 Ag    0.00000   -0.00063   -0.01282
  3 Ag    0.00000   -0.00063   -0.01282
  4 Ag    0.00000   -0.00063   -0.01282
  5 Ag   -0.00000   -0.00063   -0.01282
  6 Ag   -0.00000   -0.00063   -0.01282
  7 Ag    0.00000   -0.00063   -0.01282
  8 Ag    0.00000   -0.00063   -0.01282
  9 Ag    0.00000   -0.00063   -0.01282
 10 Ag   -0.00000   -0.00063   -0.01282
 11 Ag    0.00000   -0.00063   -0.01282
 12 Ag    0.00000   -0.00000   -0.00000
 13 Ag    0.00000   -0.00000    0.00000
 14 Ag   -0.00000   -0.00000    0.00000
 15 Ag   -0.00000   -0.00000   -0.00000
 16 Ag    0.00000    0.00000    0.00000
 17 Ag    0.00000   -0.00000   -0.00000
 18 Ag    0.00000    0.00000    0.00000
 19 Ag    0.00000    0.00000   -0.00000
 20 Ag   -0.00000    0.00000   -0.00000
 21 Ag    0.00000    0.00000    0.00000
 22 Ag    0.00000    0.00000    0.00000
 23 Ag   -0.00000    0.00000    0.00000
 24 Ag    0.00000    0.00063    0.01282
 25 Ag   -0.00000    0.00063    0.01282
 26 Ag    0.00000    0.00063    0.01282
 27 Ag    0.00000    0.00063    0.01282
 28 Ag    0.00000    0.00063    0.01282
 29 Ag   -0.00000    0.00063    0.01282
 30 Ag    0.00000    0.00063    0.01282
 31 Ag   -0.00000    0.00063    0.01282
 32 Ag    0.00000    0.00063    0.01282
 33 Ag   -0.00000    0.00063    0.01282
 34 Ag    0.00000    0.00063    0.01282
 35 Ag    0.00000    0.00063    0.01282

Timing:                              incl.     excl.
-----------------------------------------------------------
Forces:                              6.181     6.181   0.9% |
Hamiltonian:                         9.218     0.011   0.0% |
 Atomic:                             0.105     0.001   0.0% |
  XC Correction:                     0.105     0.105   0.0% |
 Calculate atomic Hamiltonians:      0.522     0.522   0.1% |
 Communicate:                        0.115     0.115   0.0% |
 Initialize Hamiltonian:             0.001     0.001   0.0% |
 Poisson:                            0.005     0.005   0.0% |
 XC 3D grid:                         8.458     1.010   0.1% |
  VdW-DF integral:                   7.448     0.157   0.0% |
   Convolution:                      0.385     0.385   0.1% |
   FFT:                              0.119     0.119   0.0% |
   gather:                           1.038     1.038   0.1% |
   hmm1:                             0.119     0.119   0.0% |
   hmm2:                             0.232     0.232   0.0% |
   iFFT:                             0.133     0.133   0.0% |
   potential:                        1.377     0.030   0.0% |
    collect:                         0.101     0.101   0.0% |
    p1:                              0.712     0.712   0.1% |
    p2:                              0.394     0.394   0.1% |
    sum:                             0.140     0.140   0.0% |
   splines:                          3.887     3.887   0.6% |
LCAO initialization:                30.618     0.073   0.0% |
 LCAO eigensolver:                   2.851     0.001   0.0% |
  Calculate projections:             0.000     0.000   0.0% |
  DenseAtomicCorrection:             0.000     0.000   0.0% |
  Distribute overlap matrix:         2.646     2.646   0.4% |
  Orbital Layouts:                   0.159     0.159   0.0% |
  Potential matrix:                  0.031     0.031   0.0% |
  Sum over cells:                    0.014     0.014   0.0% |
 LCAO to grid:                      27.243    27.243   3.9% |-|
 Set positions (LCAO WFS):           0.451     0.385   0.1% |
  Basic WFS set positions:           0.002     0.002   0.0% |
  Basis functions set positions:     0.000     0.000   0.0% |
  P tci:                             0.000     0.000   0.0% |
  ST tci:                            0.047     0.047   0.0% |
  mktci:                             0.017     0.017   0.0% |
PWDescriptor:                        0.638     0.638   0.1% |
SCF-cycle:                         643.816     0.030   0.0% |
 Davidson:                         461.328    90.326  13.0% |----|
  Apply H:                          40.334    39.372   5.6% |-|
   HMM T:                            0.961     0.961   0.1% |
  Subspace diag:                    79.375     0.006   0.0% |
   calc_h_matrix:                   53.899    13.811   2.0% ||
    Apply H:                        40.088    39.062   5.6% |-|
     HMM T:                          1.026     1.026   0.1% |
   diagonalize:                      2.544     2.544   0.4% |
   rotate_psi:                      22.926    22.926   3.3% ||
  calc. matrices:                  169.372    89.529  12.8% |----|
   Apply H:                         79.843    77.939  11.2% |---|
    HMM T:                           1.904     1.904   0.3% |
  diagonalize:                      37.754    37.754   5.4% |-|
  rotate_psi:                       44.167    44.167   6.3% |--|
 Density:                           41.194     0.001   0.0% |
  Atomic density matrices:           0.136     0.136   0.0% |
  Mix:                              17.974    17.974   2.6% ||
  Multipole moments:                 0.011     0.011   0.0% |
  Pseudo density:                   23.073    21.515   3.1% ||
   Symmetrize density:               1.558     1.558   0.2% |
 Hamiltonian:                      139.816     0.227   0.0% |
  Atomic:                            2.741     0.017   0.0% |
   XC Correction:                    2.725     2.725   0.4% |
  Calculate atomic Hamiltonians:    13.764    13.764   2.0% ||
  Communicate:                       2.882     2.882   0.4% |
  Poisson:                           0.091     0.091   0.0% |
  XC 3D grid:                      120.110    26.737   3.8% |-|
   VdW-DF integral:                 93.373     4.116   0.6% |
    Convolution:                    10.028    10.028   1.4% ||
    FFT:                             3.771     3.771   0.5% |
    gather:                         27.490    27.490   3.9% |-|
    hmm1:                            2.878     2.878   0.4% |
    hmm2:                            5.707     5.707   0.8% |
    iFFT:                            3.384     3.384   0.5% |
    potential:                      35.998     0.585   0.1% |
     collect:                        2.716     2.716   0.4% |
     p1:                            18.131    18.131   2.6% ||
     p2:                             9.722     9.722   1.4% ||
     sum:                            4.844     4.844   0.7% |
    splines:                         0.000     0.000   0.0% |
 Orthonormalize:                     1.449     0.000   0.0% |
  calc_s_matrix:                     0.259     0.259   0.0% |
  inverse-cholesky:                  0.045     0.045   0.0% |
  projections:                       0.737     0.737   0.1% |
  rotate_psi_s:                      0.408     0.408   0.1% |
Set symmetry:                        0.001     0.001   0.0% |
Other:                               7.020     7.020   1.0% |
-----------------------------------------------------------
Total:                                       697.491 100.0%

Memory usage: 2.58 GiB
Date: Wed Apr 23 07:18:01 2025
