
  ___ ___ ___ _ _ _  
 |   |   |_  | | | | 
 | | | | | . | | | | 
 |__ |  _|___|_____|  25.1.1b1
 |___|_|             

User:   dmapa@x028.nifl.fysik.dtu.dk
Date:   Sat Apr 26 06:19:59 2025
Arch:   x86_64
Pid:    408764
CWD:    /home/cat/dmapa/gpaw/dissads/tree/surfaces/BEEF-Os/min_surf/relax
Python: 3.11.3
gpaw:   /home/cat/dmapa/bin/venv-asrlib/gpaw/gpaw (55eb60cdf0)
_gpaw:  /home/cat/dmapa/bin/venv-asrlib/gpaw/build/lib.linux-x86_64-broadwell_el8-cpython-311/
        _gpaw.cpython-311-x86_64-linux-gnu.so (55eb60cdf0)
ase:    /home/cat/dmapa/bin/venv-asrlib/ase/ase (version 3.26.0b1-f4168b42a5)
numpy:  /home/modules/software/SciPy-bundle/2023.07-gfbf-2023a/lib/python3.11/site-packages/numpy (version 1.25.1)
scipy:  /home/modules/software/SciPy-bundle/2023.07-gfbf-2023a/lib/python3.11/site-packages/scipy (version 1.11.1)
libxc:  6.2.2
units:  Angstrom and eV
cores: 24
OpenMP: False
OMP_NUM_THREADS: 1

Input parameters:
  kpts: {size: [4, 3, 1]}
  mixer: {backend: pulay,
          beta: 0.02,
          method: separate,
          nmaxold: 5,
          weight: 50.0}
  mode: {ecut: 500,
         name: pw}
  spinpol: False
  symmetry: off
  xc: BEEF-vdW

System changes: positions, numbers, cell, pbc, initial_charges, initial_magmoms 

Initialize ...

species:
  Os:
    name: Osmium
    id: ae23660e50580265915413f33c5632ec
    Z: 76.0
    valence: 14
    core: 62
    charge: 0.0
    file: /home/modules/software/GPAW-setups/24.11.0/Os.PBE.gz
    compensation charges: {type: gauss,
                           rc: 0.39,
                           lmax: 2}
    cutoffs: {filter: 2.36,
              core: 2.55}
    projectors:
      #              energy  rcut
      - 6s(2.00)    -6.125   1.349
      - 5p(6.00)   -50.878   1.397
      - 6p(0.00)    -1.276   1.397
      - 5d(6.00)    -6.274   1.244
      -  s          21.086   1.349
      -  d          20.938   1.244
  
    # Using partial waves for Os as LCAO basis

Reference energy: -16881262.453389  # eV

Spin-paired calculation

Convergence criteria:
 Maximum [total energy] change in last 3 cyles: 0.0005 eV / valence electron
 Maximum integral of absolute [dens]ity change: 0.0001 electrons / valence electron
 Maximum integral of absolute [eigenst]ate change: 4e-08 eV^2 / valence electron
 Maximum number of scf [iter]ations: 333
 (Square brackets indicate name in SCF output, whereas a 'c' in
 the SCF output indicates the quantity has converged.)

Symmetries present (total): 1

  ( 1  0  0)
  ( 0  1  0)
  ( 0  0  1)

12 k-points: 4 x 3 x 1 Monkhorst-Pack grid
12 k-points in the irreducible part of the Brillouin zone
       k-points in crystal coordinates                weights
   0:    -0.37500000   -0.33333333    0.00000000          1/12
   1:    -0.37500000    0.00000000    0.00000000          1/12
   2:    -0.37500000    0.33333333    0.00000000          1/12
   3:    -0.12500000   -0.33333333    0.00000000          1/12
   4:    -0.12500000    0.00000000    0.00000000          1/12
   5:    -0.12500000    0.33333333    0.00000000          1/12
   6:     0.12500000   -0.33333333    0.00000000          1/12
   7:     0.12500000    0.00000000    0.00000000          1/12
   8:     0.12500000    0.33333333    0.00000000          1/12
   9:     0.37500000   -0.33333333    0.00000000          1/12
          ...
  11:     0.37500000    0.33333333    0.00000000          1/12

Wave functions: Plane wave expansion
  Cutoff energy: 500.000 eV
  Number of coefficients (min, max): 60206, 60310
  Pulay-stress correction: 0.000000 eV/Ang^3 (de/decut=0.000000)
  Using FFTW library
  ScaLapack parameters: grid=1x1, blocksize=None
  Wavefunction extrapolation:
    Improved wavefunction reuse through dual PAW basis 

Occupation numbers: Fermi-Dirac:
  width: 0.1000  # eV
 

Eigensolver
   Davidson(niter=2) 

Densities:
  Coarse grid: 45*50*160 grid
  Fine grid: 90*100*320 grid
  Total Charge: 0.000000 

Density mixing:
  Method: separate
  Backend: pulay
  Linear mixing parameter: 0.02
  old densities: 5
  Damping of long wavelength oscillations: 50 

Hamiltonian:
  XC and Coulomb potentials evaluated on a 90*100*320 grid
  Using the BEEF-vdW Exchange-Correlation functional
  External potential:
    NoExternalPotential
 

XC parameters: BEEF-vdW with 2 nearest neighbor stencil

Memory estimate:
  Process memory now: 3581.85 MiB
  Calculator: 423.78 MiB
    Density: 81.29 MiB
      Arrays: 35.71 MiB
      Localized functions: 31.86 MiB
      Mixer: 13.73 MiB
    Hamiltonian: 24.00 MiB
      Arrays: 23.35 MiB
      XC: 0.00 MiB
      Poisson: 0.00 MiB
      vbar: 0.65 MiB
    Wavefunctions: 318.49 MiB
      Arrays psit_nG: 141.26 MiB
      Eigensolver: 157.95 MiB
      Projections: 1.52 MiB
      Projectors: 3.45 MiB
      PW-descriptor: 14.31 MiB

Total number of cores used: 24
Parallelization over k-points: 12
Domain decomposition: 1 x 1 x 2

Number of atoms: 36
Number of atomic orbitals: 432
Number of bands in calculation: 307
Number of valence electrons: 504
Bands to converge: occupied

... initialized

Initializing position-dependent things.

Density initialized from atomic densities
Creating initial wave functions:
  307 bands from LCAO basis set

       .-------------------.  
      /|                   |  
     / |                   |  
    /  |                   |  
   /   |                   |  
  /    |                   |  
 *     |                   |  
 |     |                   |  
 |     |                   |  
 |     |                   |  
 |     |                   |  
 |     |                   |  
 |     |                   |  
 |     |                   |  
 |     |                   |  
 |     |                   |  
 |     |                   |  
 |     | Os     Os    Os   |  
 |     |                   |  
 |  Os |  OOs    Os    Os  |  
 |    Os     Os    Os      |  
 |   Os|    Os    Os       |  
 Os    OOs   OOs    Os     |  
 |     | Os     Os    Os   |  
 |OsOs | OsOs  OsOs        |  
 |     |                   |  
 |    Os     Os    Os      |  
 Os    |Os    Os           |  
 |     |                   |  
 |     |                   |  
 |     |                   |  
 |     |                   |  
 |     |                   |  
 |     |                   |  
 |     |                   |  
 |     |                   |  
 |     |                   |  
 |     .-------------------.  
 |    /                   /   
 |   /                   /    
 |  /                   /     
 | /                   /      
 |/                   /       
 *-------------------*        

Positions:
   0 Os     0.000000    0.000000   12.821143    ( 0.0000,  0.0000,  0.0000)
   1 Os     2.758933    0.000000   12.821143    ( 0.0000,  0.0000,  0.0000)
   2 Os     5.517866    0.000000   12.821143    ( 0.0000,  0.0000,  0.0000)
   3 Os     1.379466    2.389306   12.821143    ( 0.0000,  0.0000,  0.0000)
   4 Os     4.138399    2.389306   12.821143    ( 0.0000,  0.0000,  0.0000)
   5 Os     6.897332    2.389306   12.821143    ( 0.0000,  0.0000,  0.0000)
   6 Os     0.000000    4.778612   12.821143    ( 0.0000,  0.0000,  0.0000)
   7 Os     2.758933    4.778612   12.821143    ( 0.0000,  0.0000,  0.0000)
   8 Os     5.517866    4.778612   12.821143    ( 0.0000,  0.0000,  0.0000)
   9 Os     1.379466    7.167918   12.821143    ( 0.0000,  0.0000,  0.0000)
  10 Os     4.138399    7.167918   12.821143    ( 0.0000,  0.0000,  0.0000)
  11 Os     6.897332    7.167918   12.821143    ( 0.0000,  0.0000,  0.0000)
  12 Os     0.000000    1.592871   15.000000    ( 0.0000,  0.0000,  0.0000)
  13 Os     2.758933    1.592871   15.000000    ( 0.0000,  0.0000,  0.0000)
  14 Os     5.517866    1.592871   15.000000    ( 0.0000,  0.0000,  0.0000)
  15 Os     1.379466    3.982177   15.000000    ( 0.0000,  0.0000,  0.0000)
  16 Os     4.138399    3.982177   15.000000    ( 0.0000,  0.0000,  0.0000)
  17 Os     6.897332    3.982177   15.000000    ( 0.0000,  0.0000,  0.0000)
  18 Os     0.000000    6.371483   15.000000    ( 0.0000,  0.0000,  0.0000)
  19 Os     2.758933    6.371483   15.000000    ( 0.0000,  0.0000,  0.0000)
  20 Os     5.517866    6.371483   15.000000    ( 0.0000,  0.0000,  0.0000)
  21 Os     1.379466    8.760789   15.000000    ( 0.0000,  0.0000,  0.0000)
  22 Os     4.138399    8.760789   15.000000    ( 0.0000,  0.0000,  0.0000)
  23 Os     6.897332    8.760789   15.000000    ( 0.0000,  0.0000,  0.0000)
  24 Os     0.000000    0.000030   17.165275    ( 0.0000,  0.0000,  0.0000)
  25 Os     2.758933    0.000030   17.165275    ( 0.0000,  0.0000,  0.0000)
  26 Os     5.517866    0.000030   17.165275    ( 0.0000,  0.0000,  0.0000)
  27 Os     1.379466    2.389335   17.165275    ( 0.0000,  0.0000,  0.0000)
  28 Os     4.138399    2.389335   17.165275    ( 0.0000,  0.0000,  0.0000)
  29 Os     6.897332    2.389335   17.165275    ( 0.0000,  0.0000,  0.0000)
  30 Os    -0.000000    4.778642   17.165275    ( 0.0000,  0.0000,  0.0000)
  31 Os     2.758933    4.778642   17.165275    ( 0.0000,  0.0000,  0.0000)
  32 Os     5.517866    4.778642   17.165275    ( 0.0000,  0.0000,  0.0000)
  33 Os     1.379466    7.167947   17.165275    ( 0.0000,  0.0000,  0.0000)
  34 Os     4.138399    7.167947   17.165275    ( 0.0000,  0.0000,  0.0000)
  35 Os     6.897332    7.167947   17.165275    ( 0.0000,  0.0000,  0.0000)

Unit cell:
           periodic     x           y           z      points  spacing
  1. axis:    yes    8.276799    0.000000    0.000000    45     0.1839
  2. axis:    yes    0.000000    9.557224    0.000000    50     0.1911
  3. axis:    no     0.000000    0.000000   30.000000   160     0.1875

  Lengths:   8.276799   9.557224  30.000000
  Angles:   90.000000  90.000000  90.000000

Effective grid spacing dv^(1/3) = 0.1875

     iter     time        total  log10-change:
                         energy   eigst   dens
iter:   1 06:21:37 -11530.618290
iter:   2 06:22:19 -11531.031059   -0.29  -1.35
iter:   3 06:23:00 -11539.878539   -0.88  -1.35
iter:   4 06:23:41 -11524.919262   -0.54  -1.23
iter:   5 06:24:23 -11524.907389   -1.26  -1.54
iter:   6 06:25:04 -11525.155046c  -1.93  -1.59
iter:   7 06:25:45 -11524.948012c  -1.88  -1.59
iter:   8 06:26:27 -11525.171522c  -1.89  -2.04
iter:   9 06:27:08 -11525.183672c  -2.48  -2.25
iter:  10 06:27:50 -11525.187789c  -2.84  -2.24
iter:  11 06:28:31 -11525.275478c  -2.77  -2.23
iter:  12 06:29:12 -11525.286751c  -3.24  -2.19
iter:  13 06:29:54 -11525.294068c  -3.53  -2.19
iter:  14 06:30:35 -11525.030297   -2.72  -2.19
iter:  15 06:31:16 -11525.044197   -2.86  -2.57
iter:  16 06:31:58 -11525.039376c  -3.63  -2.78
iter:  17 06:32:39 -11525.041222c  -3.20  -2.73
iter:  18 06:33:21 -11525.058143c  -3.61  -2.78
iter:  19 06:34:02 -11525.043557c  -4.05  -2.74
iter:  20 06:34:43 -11525.044468c  -4.30  -2.87
iter:  21 06:35:25 -11525.041272c  -4.53  -2.87
iter:  22 06:36:06 -11525.039158c  -4.54  -2.89
iter:  23 06:36:47 -11525.037151c  -3.62  -2.95
iter:  24 06:37:29 -11525.035044c  -4.46  -3.14
iter:  25 06:38:10 -11525.035345c  -4.87  -3.18
iter:  26 06:38:52 -11525.032971c  -4.74  -3.16
iter:  27 06:39:33 -11525.034418c  -4.46  -3.17
iter:  28 06:40:14 -11525.036104c  -4.86  -3.09
iter:  29 06:40:56 -11525.032093c  -4.37  -3.06
iter:  30 06:41:37 -11525.031733c  -4.72  -3.18
iter:  31 06:42:19 -11525.031185c  -4.70  -3.24
iter:  32 06:43:00 -11525.031155c  -5.15  -3.31
iter:  33 06:43:41 -11525.030971c  -5.02  -3.38
iter:  34 06:44:23 -11525.030877c  -4.92  -3.40
iter:  35 06:45:04 -11525.030753c  -5.47  -3.53
iter:  36 06:45:45 -11525.030702c  -6.15  -3.79
iter:  37 06:46:27 -11525.030704c  -6.38  -3.85
iter:  38 06:47:08 -11525.030729c  -6.26  -3.90
iter:  39 06:47:49 -11525.030717c  -6.44  -3.96
iter:  40 06:48:31 -11525.030684c  -6.14  -3.99
iter:  41 06:49:12 -11525.030679c  -6.83  -4.03c
iter:  42 06:49:54 -11525.030730c  -6.49  -4.05c
iter:  43 06:50:35 -11525.030744c  -6.80  -4.23c
iter:  44 06:51:16 -11525.030747c  -7.20  -4.36c
iter:  45 06:51:58 -11525.030734c  -7.05  -4.47c
iter:  46 06:52:39 -11525.030733c  -7.59c -4.64c

Converged after 46
Forces in eV/Ang:
  0 Os    0.00000    0.00207    0.95072
  1 Os   -0.00000    0.00207    0.95072
  2 Os    0.00000    0.00207    0.95072
  3 Os   -0.00000    0.00200    0.95070
  4 Os    0.00000    0.00200    0.95070
  5 Os    0.00000    0.00200    0.95070
  6 Os   -0.00000    0.00207    0.95072
  7 Os   -0.00000    0.00207    0.95072
  8 Os    0.00000    0.00207    0.95072
  9 Os   -0.00000    0.00200    0.95070
 10 Os    0.00000    0.00200    0.95070
 11 Os    0.00000    0.00200    0.95070
 12 Os    0.00000   -0.00475    0.00000
 13 Os    0.00000   -0.00475    0.00000
 14 Os   -0.00000   -0.00475    0.00000
 15 Os   -0.00000   -0.00513    0.00000
 16 Os    0.00000   -0.00513    0.00000
 17 Os    0.00000   -0.00513    0.00000
 18 Os    0.00000   -0.00475    0.00000
 19 Os    0.00000   -0.00475    0.00000
 20 Os   -0.00000   -0.00475    0.00000
 21 Os   -0.00000   -0.00513    0.00000
 22 Os    0.00000   -0.00513    0.00000
 23 Os    0.00000   -0.00513    0.00000
 24 Os    0.00000    0.00207   -0.95072
 25 Os   -0.00000    0.00207   -0.95072
 26 Os    0.00000    0.00207   -0.95072
 27 Os   -0.00000    0.00200   -0.95070
 28 Os    0.00000    0.00200   -0.95070
 29 Os    0.00000    0.00200   -0.95070
 30 Os   -0.00000    0.00207   -0.95072
 31 Os   -0.00000    0.00207   -0.95072
 32 Os    0.00000    0.00207   -0.95072
 33 Os   -0.00000    0.00200   -0.95070
 34 Os    0.00000    0.00200   -0.95070
 35 Os    0.00000    0.00200   -0.95070

System changes: positions 

Initializing position-dependent things.

Timing:                              incl.     excl.
-----------------------------------------------------------
Forces:                              4.890     4.890   0.1% |
Hamiltonian:                         8.547     0.010   0.0% |
 Atomic:                             0.125     0.001   0.0% |
  XC Correction:                     0.125     0.125   0.0% |
 Calculate atomic Hamiltonians:      0.454     0.454   0.0% |
 Communicate:                        0.128     0.128   0.0% |
 Initialize Hamiltonian:             0.001     0.001   0.0% |
 Poisson:                            0.005     0.005   0.0% |
 XC 3D grid:                         7.824     0.881   0.0% |
  VdW-DF integral:                   6.943     0.143   0.0% |
   Convolution:                      0.346     0.346   0.0% |
   FFT:                              0.106     0.106   0.0% |
   gather:                           0.941     0.941   0.0% |
   hmm1:                             0.101     0.101   0.0% |
   hmm2:                             0.186     0.186   0.0% |
   iFFT:                             0.113     0.113   0.0% |
   potential:                        1.164     0.013   0.0% |
    collect:                         0.092     0.092   0.0% |
    p1:                              0.588     0.588   0.0% |
    p2:                              0.281     0.281   0.0% |
    sum:                             0.191     0.191   0.0% |
   splines:                          3.843     3.843   0.1% |
LCAO initialization:                28.219     0.074   0.0% |
 LCAO eigensolver:                   3.907     0.001   0.0% |
  Calculate projections:             0.000     0.000   0.0% |
  DenseAtomicCorrection:             0.000     0.000   0.0% |
  Distribute overlap matrix:         3.744     3.744   0.1% |
  Orbital Layouts:                   0.158     0.158   0.0% |
  Potential matrix:                  0.000     0.000   0.0% |
  Sum over cells:                    0.003     0.003   0.0% |
 LCAO to grid:                      23.549    23.549   0.4% |
 Set positions (LCAO WFS):           0.689     0.606   0.0% |
  Basic WFS set positions:           0.004     0.004   0.0% |
  Basis functions set positions:     0.000     0.000   0.0% |
  P tci:                             0.000     0.000   0.0% |
  ST tci:                            0.057     0.057   0.0% |
  mktci:                             0.021     0.021   0.0% |
PWDescriptor:                        0.060     0.060   0.0% |
Redistribute:                        0.000     0.000   0.0% |
SCF-cycle:                         614.796     4.820   0.1% |
 Davidson:                         399.952    82.229   1.5% ||
  Apply H:                          40.147    39.300   0.7% |
   HMM T:                            0.846     0.846   0.0% |
  Subspace diag:                    69.550     0.004   0.0% |
   calc_h_matrix:                   50.091    10.700   0.2% |
    Apply H:                        39.391    38.532   0.7% |
     HMM T:                          0.859     0.859   0.0% |
   diagonalize:                      2.150     2.150   0.0% |
   rotate_psi:                      17.305    17.305   0.3% |
  calc. matrices:                  145.871    67.185   1.2% |
   Apply H:                         78.686    77.026   1.4% ||
    HMM T:                           1.660     1.660   0.0% |
  diagonalize:                      29.669    29.669   0.5% |
  rotate_psi:                       32.485    32.485   0.6% |
 Density:                           45.585     0.001   0.0% |
  Atomic density matrices:           0.226     0.226   0.0% |
  Mix:                              20.321    20.321   0.4% |
  Multipole moments:                 0.018     0.018   0.0% |
  Pseudo density:                   25.019    21.489   0.4% |
   Symmetrize density:               3.530     3.530   0.1% |
 Hamiltonian:                      163.502     0.275   0.0% |
  Atomic:                            4.376     0.020   0.0% |
   XC Correction:                    4.355     4.355   0.1% |
  Calculate atomic Hamiltonians:    15.527    15.527   0.3% |
  Communicate:                       4.436     4.436   0.1% |
  Poisson:                           0.095     0.095   0.0% |
  XC 3D grid:                      138.793    31.249   0.6% |
   VdW-DF integral:                107.544     4.942   0.1% |
    Convolution:                    12.018    12.018   0.2% |
    FFT:                             4.409     4.409   0.1% |
    gather:                         31.683    31.683   0.6% |
    hmm1:                            3.314     3.314   0.1% |
    hmm2:                            5.867     5.867   0.1% |
    iFFT:                            3.868     3.868   0.1% |
    potential:                      41.443     0.607   0.0% |
     collect:                        3.308     3.308   0.1% |
     p1:                            20.171    20.171   0.4% |
     p2:                            11.257    11.257   0.2% |
     sum:                            6.100     6.100   0.1% |
    splines:                         0.000     0.000   0.0% |
 Orthonormalize:                     0.938     0.000   0.0% |
  calc_s_matrix:                     0.147     0.147   0.0% |
  inverse-cholesky:                  0.035     0.035   0.0% |
  projections:                       0.513     0.513   0.0% |
  rotate_psi_s:                      0.243     0.243   0.0% |
Set symmetry:                        0.002     0.002   0.0% |
Other:                            4946.257  4946.257  88.3% |----------------------------------|
-----------------------------------------------------------
Total:                                      5602.771 100.0%

Memory usage: 3.50 GiB
Date: Sat Apr 26 07:42:23 2025
6:27 -11525.139708c  -3.86  -2.95
iter:   6 06:57:09 -11525.135343c  -3.63  -3.13
iter:   7 06:57:50 -11525.135472c  -4.42  -3.57
iter:   8 06:58:32 -11525.135788c  -4.97  -3.60
iter:   9 06:59:13 -11525.135287c  -4.94  -3.61
iter:  10 06:59:55 -11525.135484c  -4.73  -3.91
iter:  11 07:00:37 -11525.135422c  -5.63  -3.81
iter:  12 07:01:18 -11525.135586c  -5.59  -3.82
iter:  13 07:02:00 -11525.135395c  -5.51  -3.79
iter:  14 07:02:41 -11525.135388c  -6.09  -4.06c
iter:  15 07:03:23 -11525.135341c  -5.68  -4.10c
iter:  16 07:04:04 -11525.135361c  -6.28  -4.29c
iter:  17 07:04:46 -11525.135359c  -6.75  -4.41c
iter:  18 07:05:27 -11525.135356c  -7.27  -4.46c
iter:  19 07:06:09 -11525.135340c  -7.42c -4.51c

Converged after 19 iterations.

Dipole moment: (-0.000000, 24.731481, 0.016226) |e|*Ang

Energy contributions relative to reference atoms: (reference = -16881262.453389)

Kinetic:       +863.065224
Potential:     -871.824456
External:        +0.000000
XC:            -11506.291407
Entropy (-ST):   -1.102504
Local:           -9.533450
SIC:             +0.000000
--------------------------
Free energy:   -11525.686592
Extrapolated:  -11525.135340

Showing only first 2 kpts
 Kpt  Band  Eigenvalues  Occupancy
  0   250     -1.13115    1.69561
  0   251     -1.06476    1.48293
  0   252     -1.04490    1.40322
  0   253     -0.97826    1.09403

  1   250     -1.07407    1.51784
  1   251     -1.06651    1.48960
  1   252     -0.90435    0.73150
  1   253     -0.81826    0.39202


Fermi level: -0.95940

No gap
No difference between direct/indirect transitions

Forces in eV/Ang:
  0 Os   -0.00000    0.00117    0.90194
  1 Os   -0.00000    0.00117    0.90194
  2 Os   -0.00000    0.00117    0.90194
  3 Os   -0.00000    0.00187    0.90175
  4 Os   -0.00000    0.00187    0.90175
  5 Os   -0.00000    0.00187    0.90175
  6 Os   -0.00000    0.00117    0.90194
  7 Os   -0.00000    0.00117    0.90194
  8 Os   -0.00000    0.00117    0.90194
  9 Os   -0.00000    0.00187    0.90175
 10 Os   -0.00000    0.00187    0.90175
 11 Os   -0.00000    0.00187    0.90175
 12 Os   -0.00000   -0.00373   -0.23493
 13 Os   -0.00000   -0.00373   -0.23493
 14 Os   -0.00000   -0.00373   -0.23493
 15 Os    0.00000   -0.00432   -0.23505
 16 Os    0.00000   -0.00432   -0.23505
 17 Os    0.00000   -0.00432   -0.23505
 18 Os   -0.00000   -0.00373   -0.23493
 19 Os   -0.00000   -0.00373   -0.23493
 20 Os   -0.00000   -0.00373   -0.23493
 21 Os    0.00000   -0.00432   -0.23505
 22 Os    0.00000   -0.00432   -0.23505
 23 Os    0.00000   -0.00432   -0.23505
 24 Os    0.00000    0.00129   -0.67324
 25 Os    0.00000    0.00129   -0.67324
 26 Os    0.00000    0.00129   -0.67324
 27 Os    0.00000    0.00208   -0.67305
 28 Os    0.00000    0.00208   -0.67305
 29 Os    0.00000    0.00208   -0.67305
 30 Os   -0.00000    0.00129   -0.67324
 31 Os   -0.00000    0.00129   -0.67324
 32 Os   -0.00000    0.00129   -0.67324
 33 Os   -0.00000    0.00208   -0.67305
 34 Os   -0.00000    0.00208   -0.67305
 35 Os   -0.00000    0.00208   -0.67305

System changes: positions 

Initializing position-dependent things.

Density initialized from wave functions
       .-------------------.  
      /|                   |  
     / |                   |  
    /  |                   |  
   /   |                   |  
  /    |                   |  
 *     |                   |  
 |     |                   |  
 |     |                   |  
 |     |                   |  
 |     |                   |  
 |     |                   |  
 |     |                   |  
 |     |                   |  
 |     |                   |  
 |     |                   |  
 |     |                   |  
 |     | Os     Os    Os   |  
 |     |                   |  
 |     |  OOs    Os    OOs |  
 |    Os     Os    Os      |  
 |   Os|    Os    Os       |  
 Os    OOs   OOs    Os     |  
 |     | Os     Os    Os   |  
 |OsOs | OsOs  OsOs        |  
 |     |                   |  
 |    Os     Os    Os      |  
 Os    |Os    Os           |  
 |     |                   |  
 |     |                   |  
 |     |                   |  
 |     |                   |  
 |     |                   |  
 |     |                   |  
 |     |                   |  
 |     |                   |  
 |     |                   |  
 |     .-------------------.  
 |    /                   /   
 |   /                   /    
 |  /                   /     
 | /                   /      
 |/                   /       
 *-------------------*        

Positions:
   0 Os     0.000000    0.000000   12.821143    ( 0.0000,  0.0000,  0.0000)
   1 Os     2.758933    0.000000   12.821143    ( 0.0000,  0.0000,  0.0000)
   2 Os     5.517866    0.000000   12.821143    ( 0.0000,  0.0000,  0.0000)
   3 Os     1.379466    2.389306   12.821143    ( 0.0000,  0.0000,  0.0000)
   4 Os     4.138399    2.389306   12.821143    ( 0.0000,  0.0000,  0.0000)
   5 Os     6.897332    2.389306   12.821143    ( 0.0000,  0.0000,  0.0000)
   6 Os     0.000000    4.778612   12.821143    ( 0.0000,  0.0000,  0.0000)
   7 Os     2.758933    4.778612   12.821143    ( 0.0000,  0.0000,  0.0000)
   8 Os     5.517866    4.778612   12.821143    ( 0.0000,  0.0000,  0.0000)
   9 Os     1.379466    7.167918   12.821143    ( 0.0000,  0.0000,  0.0000)
  10 Os     4.138399    7.167918   12.821143    ( 0.0000,  0.0000,  0.0000)
  11 Os     6.897332    7.167918   12.821143    ( 0.0000,  0.0000,  0.0000)
  12 Os     0.000000    1.592871   15.000000    ( 0.0000,  0.0000,  0.0000)
  13 Os     2.758933    1.592871   15.000000    ( 0.0000,  0.0000,  0.0000)
  14 Os     5.517866    1.592871   15.000000    ( 0.0000,  0.0000,  0.0000)
  15 Os     1.379466    3.982177   15.000000    ( 0.0000,  0.0000,  0.0000)
  16 Os     4.138399    3.982177   15.000000    ( 0.0000,  0.0000,  0.0000)
  17 Os     6.897332    3.982177   15.000000    ( 0.0000,  0.0000,  0.0000)
  18 Os     0.000000    6.371483   15.000000    ( 0.0000,  0.0000,  0.0000)
  19 Os     2.758933    6.371483   15.000000    ( 0.0000,  0.0000,  0.0000)
  20 Os     5.517866    6.371483   15.000000    ( 0.0000,  0.0000,  0.0000)
  21 Os     1.379466    8.760789   15.000000    ( 0.0000,  0.0000,  0.0000)
  22 Os     4.138399    8.760789   15.000000    ( 0.0000,  0.0000,  0.0000)
  23 Os     6.897332    8.760789   15.000000    ( 0.0000,  0.0000,  0.0000)
  24 Os     0.000000    0.000171   17.095332    ( 0.0000,  0.0000,  0.0000)
  25 Os     2.758933    0.000171   17.095332    ( 0.0000,  0.0000,  0.0000)
  26 Os     5.517866    0.000171   17.095332    ( 0.0000,  0.0000,  0.0000)
  27 Os     1.379466    2.389538   17.095347    ( 0.0000,  0.0000,  0.0000)
  28 Os     4.138399    2.389538   17.095347    ( 0.0000,  0.0000,  0.0000)
  29 Os     6.897332    2.389538   17.095347    ( 0.0000,  0.0000,  0.0000)
  30 Os    -0.000000    4.778783   17.095332    ( 0.0000,  0.0000,  0.0000)
  31 Os     2.758933    4.778783   17.095332    ( 0.0000,  0.0000,  0.0000)
  32 Os     5.517866    4.778783   17.095332    ( 0.0000,  0.0000,  0.0000)
  33 Os     1.379466    7.168150   17.095347    ( 0.0000,  0.0000,  0.0000)
  34 Os     4.138399    7.168150   17.095347    ( 0.0000,  0.0000,  0.0000)
  35 Os     6.897332    7.168150   17.095347    ( 0.0000,  0.0000,  0.0000)

Unit cell:
           periodic     x           y           z      points  spacing
  1. axis:    yes    8.276799    0.000000    0.000000    45     0.1839
  2. axis:    yes    0.000000    9.557224    0.000000    50     0.1911
  3. axis:    no     0.000000    0.000000   30.000000   160     0.1875

  Lengths:   8.276799   9.557224  30.000000
  Angles:   90.000000  90.000000  90.000000

Effective grid spacing dv^(1/3) = 0.1875

     iter     time        total  log10-change:
                         energy   eigst   dens
iter:   1 07:07:11 -11529.828725   -0.87
iter:   2 07:07:53 -11527.532031   -1.96  -1.65
iter:   3 07:08:34 -11526.192562   -2.25  -1.81
iter:   4 07:09:16 -11525.609967   -1.88  -2.00
iter:   5 07:09:57 -11525.392551   -2.22  -2.27
iter:   6 07:10:39 -11525.357472   -2.36  -2.59
iter:   7 07:11:20 -11525.362040c  -3.20  -2.87
iter:   8 07:12:02 -11525.363200c  -3.78  -2.93
iter:   9 07:12:43 -11525.358218c  -3.83  -3.01
iter:  10 07:13:25 -11525.356207c  -3.73  -3.14
iter:  11 07:14:06 -11525.356661c  -4.63  -3.24
iter:  12 07:14:48 -11525.356911c  -4.58  -3.22
iter:  13 07:15:29 -11525.357522c  -4.23  -3.17
iter:  14 07:16:11 -11525.358262c  -4.64  -3.39
iter:  15 07:16:52 -11525.358548c  -4.36  -3.32
iter:  16 07:17:34 -11525.358268c  -4.88  -3.31
iter:  17 07:18:16 -11525.357894c  -5.18  -3.39
iter:  18 07:18:57 -11525.357767c  -5.47  -3.40
iter:  19 07:19:39 -11525.357314c  -5.22  -3.43
iter:  20 07:20:20 -11525.357255c  -5.55  -3.47
iter:  21 07:21:02 -11525.357402c  -5.43  -3.54
iter:  22 07:21:44 -11525.357294c  -5.47  -3.81
iter:  23 07:22:25 -11525.357120c  -5.94  -3.98
iter:  24 07:23:07 -11525.357106c  -6.44  -4.09c
iter:  25 07:23:48 -11525.357090c  -6.64  -4.12c
iter:  26 07:24:30 -11525.357093c  -6.86  -4.17c
iter:  27 07:25:11 -11525.357072c  -6.39  -4.22c
iter:  28 07:25:53 -11525.357058c  -6.71  -4.31c
iter:  29 07:26:35 -11525.357054c  -7.06  -4.39c
iter:  30 07:27:16 -11525.357069c  -7.15  -4.55c
iter:  31 07:27:58 -11525.357066c  -7.46c -4.64c

Converged after 31 iterations.

Dipole moment: (-0.000000, 24.669170, 0.054437) |e|*Ang

Energy contributions relative to reference atoms: (reference = -16881262.453389)

Kinetic:       +914.421627
Potential:     -915.825550
External:        +0.000000
XC:            -11513.780550
Entropy (-ST):   -1.081790
Local:           -9.631697
SIC:             +0.000000
--------------------------
Free energy:   -11525.897961
Extrapolated:  -11525.357066

Showing only first 2 kpts
 Kpt  Band  Eigenvalues  Occupancy
  0   250     -1.15399    1.77832
  0   251     -1.05270    1.48890
  0   252     -1.04593    1.46273
  0   253     -0.98136    1.17605

  1   250     -1.07634    1.57356
  1   251     -1.04885    1.47412
  1   252     -0.89041    0.73002
  1   253     -0.81827    0.43677


Fermi level: -0.94578

No gap
No difference between direct/indirect transitions

Forces in eV/Ang:
  0 Os    0.00000    0.00025    0.78534
  1 Os    0.00000    0.00025    0.78534
  2 Os    0.00000    0.00025    0.78534
  3 Os    0.00000   -0.00006    0.78554
  4 Os    0.00000   -0.00006    0.78554
  5 Os    0.00000   -0.00006    0.78554
  6 Os    0.00000    0.00025    0.78534
  7 Os    0.00000    0.00025    0.78534
  8 Os    0.00000    0.00025    0.78534
  9 Os   -0.00000   -0.00006    0.78554
 10 Os   -0.00000   -0.00006    0.78554
 11 Os   -0.00000   -0.00006    0.78554
 12 Os   -0.00000   -0.00162   -0.88498
 13 Os   -0.00000   -0.00162   -0.88498
 14 Os   -0.00000   -0.00162   -0.88498
 15 Os    0.00000   -0.00193   -0.88502
 16 Os    0.00000   -0.00193   -0.88502
 17 Os    0.00000   -0.00193   -0.88502
 18 Os    0.00000   -0.00162   -0.88498
 19 Os    0.00000   -0.00162   -0.88498
 20 Os    0.00000   -0.00162   -0.88498
 21 Os    0.00000   -0.00193   -0.88502
 22 Os    0.00000   -0.00193   -0.88502
 23 Os    0.00000   -0.00193   -0.88502
 24 Os   -0.00000    0.00122    0.09347
 25 Os   -0.00000    0.00122    0.09347
 26 Os   -0.00000    0.00122    0.09347
 27 Os    0.00000    0.00058    0.09304
 28 Os    0.00000    0.00058    0.09304
 29 Os    0.00000    0.00058    0.09304
 30 Os   -0.00000    0.00122    0.09347
 31 Os   -0.00000    0.00122    0.09347
 32 Os   -0.00000    0.00122    0.09347
 33 Os   -0.00000    0.00058    0.09304
 34 Os   -0.00000    0.00058    0.09304
 35 Os   -0.00000    0.00058    0.09304

System changes: positions 

Initializing position-dependent things.

Density initialized from wave functions
       .-------------------.  
      /|                   |  
     / |                   |  
    /  |                   |  
   /   |                   |  
  /    |                   |  
 *     |                   |  
 |     |                   |  
 |     |                   |  
 |     |                   |  
 |     |                   |  
 |     |                   |  
 |     |                   |  
 |     |                   |  
 |     |                   |  
 |     |                   |  
 |     |                   |  
 |     | Os     Os    Os   |  
 |     |                   |  
 |     |  OOs    Os    OOs |  
 |    Os     Os    Os      |  
 |   Os|    Os    Os       |  
 Os    OOs   OOs    Os     |  
 |     | Os     Os    Os   |  
 |OsOs | OsOs  OsOs        |  
 |     |                   |  
 |    Os     Os    Os      |  
 Os    |Os    Os           |  
 |     |                   |  
 |     |                   |  
 |     |                   |  
 |     |                   |  
 |     |                   |  
 |     |                   |  
 |     |                   |  
 |     |                   |  
 |     |                   |  
 |     .-------------------.  
 |    /                   /   
 |   /                   /    
 |  /                   /     
 | /                   /      
 |/                   /       
 *-------------------*        

Positions:
   0 Os     0.000000    0.000000   12.821143    ( 0.0000,  0.0000,  0.0000)
   1 Os     2.758933    0.000000   12.821143    ( 0.0000,  0.0000,  0.0000)
   2 Os     5.517866    0.000000   12.821143    ( 0.0000,  0.0000,  0.0000)
   3 Os     1.379466    2.389306   12.821143    ( 0.0000,  0.0000,  0.0000)
   4 Os     4.138399    2.389306   12.821143    ( 0.0000,  0.0000,  0.0000)
   5 Os     6.897332    2.389306   12.821143    ( 0.0000,  0.0000,  0.0000)
   6 Os     0.000000    4.778612   12.821143    ( 0.0000,  0.0000,  0.0000)
   7 Os     2.758933    4.778612   12.821143    ( 0.0000,  0.0000,  0.0000)
   8 Os     5.517866    4.778612   12.821143    ( 0.0000,  0.0000,  0.0000)
   9 Os     1.379466    7.167918   12.821143    ( 0.0000,  0.0000,  0.0000)
  10 Os     4.138399    7.167918   12.821143    ( 0.0000,  0.0000,  0.0000)
  11 Os     6.897332    7.167918   12.821143    ( 0.0000,  0.0000,  0.0000)
  12 Os     0.000000    1.592871   15.000000    ( 0.0000,  0.0000,  0.0000)
  13 Os     2.758933    1.592871   15.000000    ( 0.0000,  0.0000,  0.0000)
  14 Os     5.517866    1.592871   15.000000    ( 0.0000,  0.0000,  0.0000)
  15 Os     1.379466    3.982177   15.000000    ( 0.0000,  0.0000,  0.0000)
  16 Os     4.138399    3.982177   15.000000    ( 0.0000,  0.0000,  0.0000)
  17 Os     6.897332    3.982177   15.000000    ( 0.0000,  0.0000,  0.0000)
  18 Os     0.000000    6.371483   15.000000    ( 0.0000,  0.0000,  0.0000)
  19 Os     2.758933    6.371483   15.000000    ( 0.0000,  0.0000,  0.0000)
  20 Os     5.517866    6.371483   15.000000    ( 0.0000,  0.0000,  0.0000)
  21 Os     1.379466    8.760789   15.000000    ( 0.0000,  0.0000,  0.0000)
  22 Os     4.138399    8.760789   15.000000    ( 0.0000,  0.0000,  0.0000)
  23 Os     6.897332    8.760789   15.000000    ( 0.0000,  0.0000,  0.0000)
  24 Os     0.000000    0.000175   17.102444    ( 0.0000,  0.0000,  0.0000)
  25 Os     2.758933    0.000175   17.102444    ( 0.0000,  0.0000,  0.0000)
  26 Os     5.517866    0.000175   17.102444    ( 0.0000,  0.0000,  0.0000)
  27 Os     1.379466    2.389527   17.102453    ( 0.0000,  0.0000,  0.0000)
  28 Os     4.138399    2.389527   17.102453    ( 0.0000,  0.0000,  0.0000)
  29 Os     6.897332    2.389527   17.102453    ( 0.0000,  0.0000,  0.0000)
  30 Os    -0.000000    4.778787   17.102444    ( 0.0000,  0.0000,  0.0000)
  31 Os     2.758933    4.778787   17.102444    ( 0.0000,  0.0000,  0.0000)
  32 Os     5.517866    4.778787   17.102444    ( 0.0000,  0.0000,  0.0000)
  33 Os     1.379466    7.168139   17.102453    ( 0.0000,  0.0000,  0.0000)
  34 Os     4.138399    7.168139   17.102453    ( 0.0000,  0.0000,  0.0000)
  35 Os     6.897332    7.168139   17.102453    ( 0.0000,  0.0000,  0.0000)

Unit cell:
           periodic     x           y           z      points  spacing
  1. axis:    yes    8.276799    0.000000    0.000000    45     0.1839
  2. axis:    yes    0.000000    9.557224    0.000000    50     0.1911
  3. axis:    no     0.000000    0.000000   30.000000   160     0.1875

  Lengths:   8.276799   9.557224  30.000000
  Angles:   90.000000  90.000000  90.000000

Effective grid spacing dv^(1/3) = 0.1875

     iter     time        total  log10-change:
                         energy   eigst   dens
iter:   1 07:29:00 -11525.425813   -2.65
iter:   2 07:29:42 -11525.397269   -3.76  -2.58
iter:   3 07:30:23 -11525.366171c  -3.39  -2.69
iter:   4 07:31:04 -11525.365085c  -4.13  -3.13
iter:   5 07:31:46 -11525.361689c  -4.35  -3.18
iter:   6 07:32:27 -11525.360001c  -4.08  -3.34
iter:   7 07:33:09 -11525.360247c  -4.88  -3.78
iter:   8 07:33:50 -11525.360287c  -5.39  -3.81
iter:   9 07:34:32 -11525.360123c  -5.39  -3.84
iter:  10 07:35:14 -11525.360120c  -5.20  -4.10c
iter:  11 07:35:55 -11525.360100c  -6.16  -4.03c
iter:  12 07:36:37 -11525.360118c  -5.96  -4.06c
iter:  13 07:37:18 -11525.360100c  -6.23  -4.03c
iter:  14 07:38:00 -11525.360091c  -6.90  -4.22c
iter:  15 07:38:41 -11525.360127c  -5.71  -4.22c
iter:  16 07:39:23 -11525.360082c  -6.83  -4.35c
iter:  17 07:40:04 -11525.360084c  -7.23  -4.52c
iter:  18 07:40:46 -11525.360088c  -7.36  -4.54c
iter:  19 07:41:27 -11525.360085c  -6.71  -4.56c
iter:  20 07:42:09 -11525.360080c  -7.56c -4.74c

Converged after 20 iterations.

Dipole moment: (0.000000, 24.673178, 0.049840) |e|*Ang

Energy contributions relative to reference atoms: (reference = -16881262.453389)

Kinetic:       +907.140064
Potential:     -909.520090
External:        +0.000000
XC:            -11512.813311
Entropy (-ST):   -1.083982
Local:           -9.624752
SIC:             +0.000000
--------------------------
Free energy:   -11525.902071
Extrapolated:  -11525.360080

Showing only first 2 kpts
 Kpt  Band  Eigenvalues  Occupancy
  0   250     -1.14951    1.76775
  0   251     -1.05350    1.48902
  0   252     -1.04551    1.45800
  0   253     -0.98001    1.16574

  1   250     -1.08321    1.59366
  1   251     -1.05052    1.47760
  1   252     -0.89129    0.73050
  1   253     -0.81713    0.43028


Fermi level: -0.94655

No gap
No difference between direct/indirect transitions

Forces in eV/Ang:
  0 Os    0.00000    0.00016    0.80561
  1 Os   -0.00000    0.00016    0.80561
  2 Os   -0.00000    0.00016    0.80561
  3 Os   -0.00000    0.00042    0.80567
  4 Os    0.00000    0.00042    0.80567
  5 Os   -0.00000    0.00042    0.80567
  6 Os   -0.00000    0.00016    0.80561
  7 Os    0.00000    0.00016    0.80561
  8 Os   -0.00000    0.00016    0.80561
  9 Os   -0.00000    0.00042    0.80567
 10 Os   -0.00000    0.00042    0.80567
 11 Os    0.00000    0.00042    0.80567
 12 Os    0.00000   -0.00168   -0.79895
 13 Os    0.00000   -0.00168   -0.79895
 14 Os   -0.00000   -0.00168   -0.79895
 15 Os    0.00000   -0.00237   -0.79899
 16 Os   -0.00000   -0.00237   -0.79899
 17 Os    0.00000   -0.00237   -0.79899
 18 Os   -0.00000   -0.00168   -0.79895
 19 Os    0.00000   -0.00168   -0.79895
 20 Os   -0.00000   -0.00168   -0.79895
 21 Os   -0.00000   -0.00237   -0.79899
 22 Os   -0.00000   -0.00237   -0.79899
 23 Os   -0.00000   -0.00237   -0.79899
 24 Os   -0.00000    0.00088   -0.00418
 25 Os    0.00000    0.00088   -0.00418
 26 Os    0.00000    0.00088   -0.00418
 27 Os    0.00000    0.00088   -0.00396
 28 Os    0.00000    0.00088   -0.00396
 29 Os   -0.00000    0.00088   -0.00396
 30 Os    0.00000    0.00088   -0.00418
 31 Os   -0.00000    0.00088   -0.00418
 32 Os   -0.00000    0.00088   -0.00418
 33 Os    0.00000    0.00088   -0.00396
 34 Os    0.00000    0.00088   -0.00396
 35 Os   -0.00000    0.00088   -0.00396

Timing:                                      incl.     excl.
-------------------------------------------------------------------
Density initialized from wave functions:    10.108    10.108   0.2% |
 Symmetrize density:                         0.000     0.000   0.0% |
Forces:                                     58.100    58.100   1.2% |
Hamiltonian:                                32.178     0.046   0.0% |
 Atomic:                                     0.987     0.487   0.0% |
  XC Correction:                             0.500     0.500   0.0% |
 Calculate atomic Hamiltonians:              5.270     5.270   0.1% |
 Communicate:                                0.021     0.021   0.0% |
 Initialize Hamiltonian:                     0.003     0.003   0.0% |
 Poisson:                                    0.035     0.035   0.0% |
 XC 3D grid:                                25.816     9.575   0.2% |
  VdW-DF integral:                          16.241     0.517   0.0% |
   Convolution:                              1.366     1.366   0.0% |
   FFT:                                      0.453     0.453   0.0% |
   gather:                                   3.591     3.591   0.1% |
   hmm1:                                     0.468     0.468   0.0% |
   hmm2:                                     0.794     0.794   0.0% |
   iFFT:                                     0.450     0.450   0.0% |
   potential:                                4.790     0.146   0.0% |
    collect:                                 0.246     0.246   0.0% |
    p1:                                      2.585     2.585   0.1% |
    p2:                                      1.374     1.374   0.0% |
    sum:                                     0.439     0.439   0.0% |
   splines:                                  3.812     3.812   0.1% |
LCAO initialization:                        49.885     0.073   0.0% |
 LCAO eigensolver:                           3.870     0.001   0.0% |
  Calculate projections:                     0.012     0.012   0.0% |
  DenseAtomicCorrection:                     0.011     0.011   0.0% |
  Distribute overlap matrix:                 0.271     0.271   0.0% |
  Orbital Layouts:                           0.166     0.166   0.0% |
  Potential matrix:                          3.398     3.398   0.1% |
  Sum over cells:                            0.011     0.011   0.0% |
 LCAO to grid:                              45.048    45.048   0.9% |
 Set positions (LCAO WFS):                   0.893     0.417   0.0% |
  Basic WFS set positions:                   0.001     0.001   0.0% |
  Basis functions set positions:             0.000     0.000   0.0% |
  P tci:                                     0.302     0.302   0.0% |
  ST tci:                                    0.153     0.153   0.0% |
  mktci:                                     0.021     0.021   0.0% |
PWDescriptor:                                0.059     0.059   0.0% |
Redistribute:                                0.007     0.007   0.0% |
SCF-cycle:                                4779.026   108.637   2.2% ||
 Davidson:                                3489.080   768.683  15.5% |-----|
  Apply H:                                 351.696   344.576   7.0% |--|
   HMM T:                                    7.120     7.120   0.1% |
  Subspace diag:                           620.306     0.015   0.0% |
   calc_h_matrix:                          455.203   103.721   2.1% ||
    Apply H:                               351.482   344.355   7.0% |--|
     HMM T:                                  7.127     7.127   0.1% |
   diagonalize:                              5.215     5.215   0.1% |
   rotate_psi:                             159.872   159.872   3.2% ||
  calc. matrices:                         1330.467   633.588  12.8% |----|
   Apply H:                                696.879   682.777  13.8% |-----|
    HMM T:                                  14.102    14.102   0.3% |
  diagonalize:                             101.884   101.884   2.1% ||
  rotate_psi:                              316.044   316.044   6.4% |--|
 Density:                                  377.197     0.003   0.0% |
  Atomic density matrices:                   0.668     0.668   0.0% |
  Mix:                                     183.334   183.334   3.7% ||
  Multipole moments:                         0.059     0.059   0.0% |
  Pseudo density:                          193.132   193.130   3.9% |-|
   Symmetrize density:                       0.003     0.003   0.0% |
 Hamiltonian:                              793.260     1.356   0.0% |
  Atomic:                                   27.603    13.609   0.3% |
   XC Correction:                           13.994    13.994   0.3% |
  Calculate atomic Hamiltonians:           148.075   148.075   3.0% ||
  Communicate:                               0.644     0.644   0.0% |
  Poisson:                                   1.052     1.052   0.0% |
  XC 3D grid:                              614.531   268.410   5.4% |-|
   VdW-DF integral:                        346.121    14.435   0.3% |
    Convolution:                            38.198    38.198   0.8% |
    FFT:                                    13.363    13.363   0.3% |
    gather:                                 97.674    97.674   2.0% ||
    hmm1:                                   13.460    13.460   0.3% |
    hmm2:                                   22.482    22.482   0.5% |
    iFFT:                                   12.690    12.690   0.3% |
    potential:                             133.820     4.207   0.1% |
     collect:                                6.816     6.816   0.1% |
     p1:                                    72.222    72.222   1.5% ||
     p2:                                    38.761    38.761   0.8% |
     sum:                                   11.813    11.813   0.2% |
    splines:                                 0.001     0.001   0.0% |
 Orthonormalize:                            10.853     0.001   0.0% |
  calc_s_matrix:                             1.769     1.769   0.0% |
  inverse-cholesky:                          0.108     0.108   0.0% |
  projections:                               6.099     6.099   0.1% |
  rotate_psi_s:                              2.877     2.877   0.1% |
Set symmetry:                                0.000     0.000   0.0% |
Other:                                      14.947    14.947   0.3% |
-------------------------------------------------------------------
Total:                                              4944.310 100.0%

Memory usage: 3.50 GiB
Date: Sat Apr 26 07:42:24 2025
