
  ___ ___ ___ _ _ _  
 |   |   |_  | | | | 
 | | | | | . | | | | 
 |__ |  _|___|_____|  25.1.1b1
 |___|_|             

User:   dmapa@x053.nifl.fysik.dtu.dk
Date:   Thu Apr 24 10:28:56 2025
Arch:   x86_64
Pid:    378306
CWD:    /home/cat/dmapa/gpaw/dissads/tree/surfaces/BEEF-Au/min_surf/relax
Python: 3.11.3
gpaw:   /home/cat/dmapa/bin/venv-asrlib/gpaw/gpaw (55eb60cdf0)
_gpaw:  /home/cat/dmapa/bin/venv-asrlib/gpaw/build/lib.linux-x86_64-broadwell_el8-cpython-311/
        _gpaw.cpython-311-x86_64-linux-gnu.so (55eb60cdf0)
ase:    /home/cat/dmapa/bin/venv-asrlib/ase/ase (version 3.26.0b1-f4168b42a5)
numpy:  /home/modules/software/SciPy-bundle/2023.07-gfbf-2023a/lib/python3.11/site-packages/numpy (version 1.25.1)
scipy:  /home/modules/software/SciPy-bundle/2023.07-gfbf-2023a/lib/python3.11/site-packages/scipy (version 1.11.1)
libxc:  6.2.2
units:  Angstrom and eV
cores: 24
OpenMP: False
OMP_NUM_THREADS: 1

Input parameters:
  kpts: {size: [4, 3, 1]}
  mixer: {backend: pulay,
          beta: 0.02,
          method: separate,
          nmaxold: 5,
          weight: 50.0}
  mode: {ecut: 500,
         name: pw}
  spinpol: False
  xc: BEEF-vdW

System changes: positions, numbers, cell, pbc, initial_charges, initial_magmoms 

Initialize ...

species:
  Au:
    name: Gold
    id: b12133f335f6ca0d89c4b1ccaa844e9a
    Z: 79.0
    valence: 11
    core: 68
    charge: 0.0
    file: /home/modules/software/GPAW-setups/24.11.0/Au.PBE.gz
    compensation charges: {type: gauss,
                           rc: 0.42,
                           lmax: 2}
    cutoffs: {filter: 2.33,
              core: 2.81}
    projectors:
      #              energy  rcut
      - 6s(1.00)    -5.728   1.323
      - 6p(0.00)    -0.775   1.323
      - 5d(10.00)    -6.891   1.323
      -  s          21.484   1.323
      -  p          26.436   1.323
      -  d          20.321   1.323
  
    # Using partial waves for Au as LCAO basis

Reference energy: -18597537.759934  # eV

Spin-paired calculation

Convergence criteria:
 Maximum [total energy] change in last 3 cyles: 0.0005 eV / valence electron
 Maximum integral of absolute [dens]ity change: 0.0001 electrons / valence electron
 Maximum integral of absolute [eigenst]ate change: 4e-08 eV^2 / valence electron
 Maximum number of scf [iter]ations: 333
 (Square brackets indicate name in SCF output, whereas a 'c' in
 the SCF output indicates the quantity has converged.)

Symmetries present (total): 2

  ( 1  0  0)  (-1  0  0)
  ( 0  1  0)  ( 0  1  0)
  ( 0  0  1)  ( 0  0  1)

12 k-points: 4 x 3 x 1 Monkhorst-Pack grid
4 k-points in the irreducible part of the Brillouin zone
       k-points in crystal coordinates                weights
   0:     0.12500000    0.00000000    0.00000000          2/12
   1:     0.12500000    0.33333333    0.00000000          4/12
   2:     0.37500000    0.00000000    0.00000000          2/12
   3:     0.37500000    0.33333333    0.00000000          4/12

Wave functions: Plane wave expansion
  Cutoff energy: 500.000 eV
  Number of coefficients (min, max): 71395, 71554
  Pulay-stress correction: 0.000000 eV/Ang^3 (de/decut=0.000000)
  Using FFTW library
  ScaLapack parameters: grid=1x1, blocksize=None
  Wavefunction extrapolation:
    Improved wavefunction reuse through dual PAW basis 

Occupation numbers: Fermi-Dirac:
  width: 0.1000  # eV
 

Eigensolver
   Davidson(niter=2) 

Densities:
  Coarse grid: 48*54*160 grid
  Fine grid: 96*108*320 grid
  Total Charge: 0.000000 

Density mixing:
  Method: separate
  Backend: pulay
  Linear mixing parameter: 0.02
  old densities: 5
  Damping of long wavelength oscillations: 50 

Hamiltonian:
  XC and Coulomb potentials evaluated on a 96*108*320 grid
  Using the BEEF-vdW Exchange-Correlation functional
  External potential:
    NoExternalPotential
 

XC parameters: BEEF-vdW with 2 nearest neighbor stencil

Memory estimate:
  Process memory now: 3531.95 MiB
  Calculator: 156.88 MiB
    Density: 31.70 MiB
      Arrays: 13.76 MiB
      Localized functions: 12.60 MiB
      Mixer: 5.34 MiB
    Hamiltonian: 9.25 MiB
      Arrays: 9.00 MiB
      XC: 0.00 MiB
      Poisson: 0.00 MiB
      vbar: 0.26 MiB
    Wavefunctions: 115.92 MiB
      Arrays psit_nG: 44.04 MiB
      Eigensolver: 53.89 MiB
      Projections: 0.40 MiB
      Projectors: 1.36 MiB
      PW-descriptor: 16.23 MiB

Total number of cores used: 24
Parallelization over k-points: 4
Domain decomposition: 1 x 2 x 3

Number of atoms: 36
Number of atomic orbitals: 324
Number of bands in calculation: 242
Number of valence electrons: 396
Bands to converge: occupied

... initialized

Initializing position-dependent things.

Density initialized from atomic densities
Creating initial wave functions:
  242 bands from LCAO basis set

       .---------------------.  
      /|                     |  
     / |                     |  
    /  |                     |  
   /   |                     |  
  /    |                     |  
 *     |                     |  
 |     |                     |  
 |     |                     |  
 |     |                     |  
 |     |                     |  
 |     |                     |  
 |     |                     |  
 |     |                     |  
 |     |                     |  
 |     |                     |  
 |     |                     |  
 |     | Au      Au     Au   |  
 |  Au |   Au      Au        |  
 |     |  Au     Au      Au  |  
 |    Au      Au     Au      |  
 Au  Au|Au  Au  Au  Au       |  
 |     Au      Au     Au     |  
 |    Au     Au      Au      |  
 |Au   |AAu     AAu    Au    |  
 |     |                     |  
 | Au  |  Au      Au         |  
 |   Au|     Au     Au       |  
 |     |                     |  
 |     |                     |  
 |     |                     |  
 |     |                     |  
 |     |                     |  
 |     |                     |  
 |     |                     |  
 |     |                     |  
 |     |                     |  
 |     .---------------------.  
 |    /                     /   
 |   /                     /    
 |  /                     /     
 | /                     /      
 |/                     /       
 *---------------------*        

Positions:
   0 Au     1.502606    0.867530   12.546255    ( 0.0000,  0.0000,  0.0000)
   1 Au     4.507818    0.867530   12.546255    ( 0.0000,  0.0000,  0.0000)
   2 Au     7.513030    0.867530   12.546255    ( 0.0000,  0.0000,  0.0000)
   3 Au     0.000000    3.470120   12.546255    ( 0.0000,  0.0000,  0.0000)
   4 Au     3.005212    3.470120   12.546255    ( 0.0000,  0.0000,  0.0000)
   5 Au     6.010424    3.470120   12.546255    ( 0.0000,  0.0000,  0.0000)
   6 Au     1.502606    6.072710   12.546255    ( 0.0000,  0.0000,  0.0000)
   7 Au     4.507818    6.072710   12.546255    ( 0.0000,  0.0000,  0.0000)
   8 Au     7.513030    6.072710   12.546255    ( 0.0000,  0.0000,  0.0000)
   9 Au     0.000000    8.675300   12.546255    ( 0.0000,  0.0000,  0.0000)
  10 Au     3.005212    8.675300   12.546255    ( 0.0000,  0.0000,  0.0000)
  11 Au     6.010424    8.675300   12.546255    ( 0.0000,  0.0000,  0.0000)
  12 Au     0.000000    1.735060   15.000000    ( 0.0000,  0.0000,  0.0000)
  13 Au     3.005212    1.735060   15.000000    ( 0.0000,  0.0000,  0.0000)
  14 Au     6.010424    1.735060   15.000000    ( 0.0000,  0.0000,  0.0000)
  15 Au     1.502606    4.337650   15.000000    ( 0.0000,  0.0000,  0.0000)
  16 Au     4.507818    4.337650   15.000000    ( 0.0000,  0.0000,  0.0000)
  17 Au     7.513030    4.337650   15.000000    ( 0.0000,  0.0000,  0.0000)
  18 Au     0.000000    6.940240   15.000000    ( 0.0000,  0.0000,  0.0000)
  19 Au     3.005212    6.940240   15.000000    ( 0.0000,  0.0000,  0.0000)
  20 Au     6.010424    6.940240   15.000000    ( 0.0000,  0.0000,  0.0000)
  21 Au     1.502606    9.542830   15.000000    ( 0.0000,  0.0000,  0.0000)
  22 Au     4.507818    9.542830   15.000000    ( 0.0000,  0.0000,  0.0000)
  23 Au     7.513030    9.542830   15.000000    ( 0.0000,  0.0000,  0.0000)
  24 Au     0.000000    0.000000   17.453745    ( 0.0000,  0.0000,  0.0000)
  25 Au     3.005212    0.000000   17.453745    ( 0.0000,  0.0000,  0.0000)
  26 Au     6.010424    0.000000   17.453745    ( 0.0000,  0.0000,  0.0000)
  27 Au     1.502606    2.602590   17.453745    ( 0.0000,  0.0000,  0.0000)
  28 Au     4.507818    2.602590   17.453745    ( 0.0000,  0.0000,  0.0000)
  29 Au     7.513030    2.602590   17.453745    ( 0.0000,  0.0000,  0.0000)
  30 Au     0.000000    5.205180   17.453745    ( 0.0000,  0.0000,  0.0000)
  31 Au     3.005212    5.205180   17.453745    ( 0.0000,  0.0000,  0.0000)
  32 Au     6.010424    5.205180   17.453745    ( 0.0000,  0.0000,  0.0000)
  33 Au     1.502606    7.807770   17.453745    ( 0.0000,  0.0000,  0.0000)
  34 Au     4.507818    7.807770   17.453745    ( 0.0000,  0.0000,  0.0000)
  35 Au     7.513030    7.807770   17.453745    ( 0.0000,  0.0000,  0.0000)

Unit cell:
           periodic     x           y           z      points  spacing
  1. axis:    yes    9.015636    0.000000    0.000000    48     0.1878
  2. axis:    yes    0.000000   10.410360    0.000000    54     0.1928
  3. axis:    no     0.000000    0.000000   30.000000   160     0.1875

  Lengths:   9.015636  10.410360  30.000000
  Angles:   90.000000  90.000000  90.000000

Effective grid spacing dv^(1/3) = 0.1894

     iter     time        total  log10-change:
                         energy   eigst   dens
iter:   1 10:29:33 -12026.290959
iter:   2 10:29:49 -12026.317402   -1.81  -1.56
iter:   3 10:30:05 -12026.437321c  -2.37  -1.56
iter:   4 10:30:21 -12025.188001   -1.73  -1.55
iter:   5 10:30:37 -12025.032768   -3.24  -1.90
iter:   6 10:30:53 -12024.921790   -2.84  -1.95
iter:   7 10:31:09 -12025.335420   -2.87  -2.06
iter:   8 10:31:25 -12024.976997   -2.08  -2.08
iter:   9 10:31:41 -12024.923333   -3.62  -2.45
iter:  10 10:31:57 -12025.046890c  -3.44  -2.55
iter:  11 10:32:13 -12024.884227c  -2.83  -2.27
iter:  12 10:32:29 -12024.886998c  -3.97  -3.14
iter:  13 10:32:45 -12024.879267c  -4.75  -3.09
iter:  14 10:33:01 -12024.874298c  -4.08  -3.22
iter:  15 10:33:17 -12024.874721c  -5.38  -3.52
iter:  16 10:33:33 -12024.874065c  -5.37  -3.46
iter:  17 10:33:49 -12024.874004c  -5.38  -3.71
iter:  18 10:34:05 -12024.873967c  -6.50  -3.89
iter:  19 10:34:21 -12024.873911c  -5.96  -3.95
iter:  20 10:34:37 -12024.873915c  -6.59  -4.06c
iter:  21 10:34:53 -12024.873907c  -7.19  -4.12c
iter:  22 10:35:09 -12024.873901c  -7.16  -4.15c
iter:  23 10:35:25 -12024.873941c  -6.64  -4.24c
iter:  24 10:35:41 -12024.873937c  -7.38  -4.31c
iter:  25 10:35:57 -12024.873927c  -7.58c -4.32c

Converged after 25 iterations.

Dipole moment: (-0.000000, -0.063133, 0.000002) |e|*Ang

Energy contributions relative to reference atoms: (reference = -18597537.759934)

Kinetic:       +681.497210
Potential:     -685.575983
External:        +0.000000
XC:            -12022.973965
Entropy (-ST):   -0.381984
Local:           +2.369804
SIC:             +0.000000
--------------------------
Free energy:   -12025.064919
Extrapolated:  -12024.873927

Showing only first 2 kpts
 Kpt  Band  Eigenvalues  Occupancy
  0   196     -2.96224    1.99960
  0   197     -2.14584    1.17919
  0   198     -2.14584    1.17918
  0   199     -2.00035    0.50229

  1   196     -2.66210    1.99206
  1   197     -2.51144    1.96467
  1   198     -2.04354    0.68118
  1   199     -1.86734    0.16292


Fermi level: -2.10961

No gap
No difference between direct/indirect transitions

Forces in eV/Ang:
  0 Au    0.00000    0.00109   -0.06948
  1 Au    0.00000    0.00109   -0.06948
  2 Au   -0.00000    0.00109   -0.06948
  3 Au    0.00000    0.00106   -0.06949
  4 Au    0.00000    0.00106   -0.06949
  5 Au   -0.00000    0.00106   -0.06949
  6 Au    0.00000    0.00108   -0.06949
  7 Au    0.00000    0.00108   -0.06949
  8 Au   -0.00000    0.00108   -0.06949
  9 Au    0.00000    0.00106   -0.06949
 10 Au   -0.00000    0.00107   -0.06949
 11 Au    0.00000    0.00107   -0.06949
 12 Au    0.00000   -0.00000   -0.00001
 13 Au   -0.00000   -0.00000   -0.00001
 14 Au    0.00000   -0.00000   -0.00001
 15 Au   -0.00000    0.00000   -0.00000
 16 Au    0.00000    0.00000   -0.00000
 17 Au    0.00000    0.00000   -0.00000
 18 Au    0.00000   -0.00000   -0.00000
 19 Au    0.00000    0.00000   -0.00000
 20 Au   -0.00000    0.00000   -0.00000
 21 Au    0.00000   -0.00000   -0.00001
 22 Au    0.00000   -0.00000   -0.00001
 23 Au   -0.00000   -0.00000   -0.00001
 24 Au    0.00000   -0.00106    0.06948
 25 Au   -0.00000   -0.00106    0.06948
 26 Au    0.00000   -0.00106    0.06948
 27 Au    0.00000   -0.00109    0.06948
 28 Au    0.00000   -0.00109    0.06948
 29 Au   -0.00000   -0.00109    0.06948
 30 Au    0.00000   -0.00106    0.06948
 31 Au    0.00000   -0.00106    0.06948
 32 Au   -0.00000   -0.00106    0.06948
 33 Au    0.00000   -0.00108    0.06948
 34 Au    0.00000   -0.00108    0.06948
 35 Au   -0.00000   -0.00108    0.06948

System changes: positions 

Initializing position-dependent things.

Density initialized from wave functions
       .---------------------.  
      /|                     |  
     / |                     |  
    /  |                     |  
   /   |                     |  
  /    |                     |  
 *     |                     |  
 |     |                     |  
 |     |                     |  
 |     |                     |  
 |     |                     |  
 |     |                     |  
 |     |                     |  
 |     |                     |  
 |     |                     |  
 |     Au     Au      Au     |  
 |     |                     |  
 |     | Au     Au      Au   |  
 |  Au |   Au      Au        |  
 |     |  Au     Au      Au  |  
 |    Au     Au      Au      |  
 |   Au|    Au      Au       |  
 |     Au      Au     Au     |  
 |    Au     Au      Au      |  
 |Au   |AAu     AAu    Au    |  
 |     |                     |  
 | Au  |  Au      Au         |  
 |   Au|     Au     Au       |  
 |     |                     |  
 |     |                     |  
 |     |                     |  
 |     |                     |  
 |     |                     |  
 |     |                     |  
 |     |                     |  
 |     |                     |  
 |     |                     |  
 |     .---------------------.  
 |    /                     /   
 |   /                     /    
 |  /                     /     
 | /                     /      
 |/                     /       
 *---------------------*        

Positions:
   0 Au     1.502606    0.867530   12.546255    ( 0.0000,  0.0000,  0.0000)
   1 Au     4.507818    0.867530   12.546255    ( 0.0000,  0.0000,  0.0000)
   2 Au     7.513030    0.867530   12.546255    ( 0.0000,  0.0000,  0.0000)
   3 Au     0.000000    3.470120   12.546255    ( 0.0000,  0.0000,  0.0000)
   4 Au     3.005212    3.470120   12.546255    ( 0.0000,  0.0000,  0.0000)
   5 Au     6.010424    3.470120   12.546255    ( 0.0000,  0.0000,  0.0000)
   6 Au     1.502606    6.072710   12.546255    ( 0.0000,  0.0000,  0.0000)
   7 Au     4.507818    6.072710   12.546255    ( 0.0000,  0.0000,  0.0000)
   8 Au     7.513030    6.072710   12.546255    ( 0.0000,  0.0000,  0.0000)
   9 Au     0.000000    8.675300   12.546255    ( 0.0000,  0.0000,  0.0000)
  10 Au     3.005212    8.675300   12.546255    ( 0.0000,  0.0000,  0.0000)
  11 Au     6.010424    8.675300   12.546255    ( 0.0000,  0.0000,  0.0000)
  12 Au     0.000000    1.735060   15.000000    ( 0.0000,  0.0000,  0.0000)
  13 Au     3.005212    1.735060   15.000000    ( 0.0000,  0.0000,  0.0000)
  14 Au     6.010424    1.735060   15.000000    ( 0.0000,  0.0000,  0.0000)
  15 Au     1.502606    4.337650   15.000000    ( 0.0000,  0.0000,  0.0000)
  16 Au     4.507818    4.337650   15.000000    ( 0.0000,  0.0000,  0.0000)
  17 Au     7.513030    4.337650   15.000000    ( 0.0000,  0.0000,  0.0000)
  18 Au     0.000000    6.940240   15.000000    ( 0.0000,  0.0000,  0.0000)
  19 Au     3.005212    6.940240   15.000000    ( 0.0000,  0.0000,  0.0000)
  20 Au     6.010424    6.940240   15.000000    ( 0.0000,  0.0000,  0.0000)
  21 Au     1.502606    9.542830   15.000000    ( 0.0000,  0.0000,  0.0000)
  22 Au     4.507818    9.542830   15.000000    ( 0.0000,  0.0000,  0.0000)
  23 Au     7.513030    9.542830   15.000000    ( 0.0000,  0.0000,  0.0000)
  24 Au     0.000000   -0.000015   17.454738    ( 0.0000,  0.0000,  0.0000)
  25 Au     3.005212   -0.000015   17.454738    ( 0.0000,  0.0000,  0.0000)
  26 Au     6.010424   -0.000015   17.454738    ( 0.0000,  0.0000,  0.0000)
  27 Au     1.502606    2.602574   17.454738    ( 0.0000,  0.0000,  0.0000)
  28 Au     4.507818    2.602574   17.454738    ( 0.0000,  0.0000,  0.0000)
  29 Au     7.513030    2.602574   17.454738    ( 0.0000,  0.0000,  0.0000)
  30 Au     0.000000    5.205165   17.454738    ( 0.0000,  0.0000,  0.0000)
  31 Au     3.005212    5.205165   17.454738    ( 0.0000,  0.0000,  0.0000)
  32 Au     6.010424    5.205165   17.454738    ( 0.0000,  0.0000,  0.0000)
  33 Au     1.502606    7.807754   17.454738    ( 0.0000,  0.0000,  0.0000)
  34 Au     4.507818    7.807754   17.454738    ( 0.0000,  0.0000,  0.0000)
  35 Au     7.513030    7.807754   17.454738    ( 0.0000,  0.0000,  0.0000)

Unit cell:
           periodic     x           y           z      points  spacing
  1. axis:    yes    9.015636    0.000000    0.000000    48     0.1878
  2. axis:    yes    0.000000   10.410360    0.000000    54     0.1928
  3. axis:    no     0.000000    0.000000   30.000000   160     0.1875

  Lengths:   9.015636  10.410360  30.000000
  Angles:   90.000000  90.000000  90.000000

Effective grid spacing dv^(1/3) = 0.1894

     iter     time        total  log10-change:
                         energy   eigst   dens
iter:   1 10:36:21 -12024.874824   -5.22
iter:   2 10:36:37 -12024.874769   -6.84  -3.69
iter:   3 10:36:53 -12024.874697c  -5.57  -3.73
iter:   4 10:37:09 -12024.874663c  -7.42c -4.31c

Converged after 4 iterations.

Dipole moment: (-0.000000, -0.061230, -0.002081) |e|*Ang

Energy contributions relative to reference atoms: (reference = -18597537.759934)

Kinetic:       +678.899204
Potential:     -683.080775
External:        +0.000000
XC:            -12022.923661
Entropy (-ST):   -0.382101
Local:           +2.421620
SIC:             +0.000000
--------------------------
Free energy:   -12025.065714
Extrapolated:  -12024.874663

Showing only first 2 kpts
 Kpt  Band  Eigenvalues  Occupancy
  0   196     -2.96361    1.99960
  0   197     -2.14713    1.17757
  0   198     -2.14713    1.17757
  0   199     -2.00263    0.50469

  1   196     -2.66401    1.99208
  1   197     -2.51246    1.96446
  1   198     -2.04481    0.67956
  1   199     -1.86966    0.16395


Fermi level: -2.11124

No gap
No difference between direct/indirect transitions

Forces in eV/Ang:
  0 Au   -0.00000    0.00109   -0.06134
  1 Au    0.00000    0.00109   -0.06134
  2 Au    0.00000    0.00109   -0.06134
  3 Au    0.00000    0.00108   -0.06134
  4 Au   -0.00000    0.00108   -0.06134
  5 Au    0.00000    0.00108   -0.06134
  6 Au   -0.00000    0.00109   -0.06134
  7 Au    0.00000    0.00109   -0.06134
  8 Au    0.00000    0.00109   -0.06134
  9 Au    0.00000    0.00108   -0.06134
 10 Au    0.00000    0.00108   -0.06134
 11 Au   -0.00000    0.00108   -0.06134
 12 Au    0.00000   -0.00000   -0.00445
 13 Au   -0.00000   -0.00000   -0.00445
 14 Au    0.00000   -0.00000   -0.00445
 15 Au    0.00000   -0.00000   -0.00445
 16 Au    0.00000   -0.00000   -0.00445
 17 Au   -0.00000   -0.00000   -0.00445
 18 Au    0.00000   -0.00000   -0.00445
 19 Au   -0.00000   -0.00000   -0.00445
 20 Au    0.00000   -0.00000   -0.00445
 21 Au    0.00000   -0.00000   -0.00445
 22 Au    0.00000   -0.00000   -0.00445
 23 Au   -0.00000   -0.00000   -0.00445
 24 Au    0.00000   -0.00101    0.06562
 25 Au    0.00000   -0.00101    0.06562
 26 Au   -0.00000   -0.00101    0.06562
 27 Au   -0.00000   -0.00102    0.06562
 28 Au    0.00000   -0.00102    0.06562
 29 Au    0.00000   -0.00102    0.06562
 30 Au    0.00000   -0.00101    0.06562
 31 Au   -0.00000   -0.00101    0.06562
 32 Au    0.00000   -0.00101    0.06562
 33 Au   -0.00000   -0.00102    0.06562
 34 Au    0.00000   -0.00102    0.06562
 35 Au    0.00000   -0.00102    0.06562

System changes: positions 

Initializing position-dependent things.

Density initialized from wave functions
       .---------------------.  
      /|                     |  
     / |                     |  
    /  |                     |  
   /   |                     |  
  /    |                     |  
 *     |                     |  
 |     |                     |  
 |     |                     |  
 |     |                     |  
 |     |                     |  
 |     |                     |  
 |     |                     |  
 |     |                     |  
 |     |                     |  
 |     Au     Au      Au     |  
 |     |                     |  
 |     | Au     Au      Au   |  
 |  Au |   Au      Au        |  
 |     |  Au     Au      Au  |  
 |    Au     Au      Au      |  
 |   Au|    Au      Au       |  
 |     Au      Au     Au     |  
 |    Au     Au      Au      |  
 |Au   |AAu     AAu    Au    |  
 |     |                     |  
 | Au  |  Au      Au         |  
 |   Au|     Au     Au       |  
 |     |                     |  
 |     |                     |  
 |     |                     |  
 |     |                     |  
 |     |                     |  
 |     |                     |  
 |     |                     |  
 |     |                     |  
 |     |                     |  
 |     .---------------------.  
 |    /                     /   
 |   /                     /    
 |  /                     /     
 | /                     /      
 |/                     /       
 *---------------------*        

Positions:
   0 Au     1.502606    0.867530   12.546255    ( 0.0000,  0.0000,  0.0000)
   1 Au     4.507818    0.867530   12.546255    ( 0.0000,  0.0000,  0.0000)
   2 Au     7.513030    0.867530   12.546255    ( 0.0000,  0.0000,  0.0000)
   3 Au     0.000000    3.470120   12.546255    ( 0.0000,  0.0000,  0.0000)
   4 Au     3.005212    3.470120   12.546255    ( 0.0000,  0.0000,  0.0000)
   5 Au     6.010424    3.470120   12.546255    ( 0.0000,  0.0000,  0.0000)
   6 Au     1.502606    6.072710   12.546255    ( 0.0000,  0.0000,  0.0000)
   7 Au     4.507818    6.072710   12.546255    ( 0.0000,  0.0000,  0.0000)
   8 Au     7.513030    6.072710   12.546255    ( 0.0000,  0.0000,  0.0000)
   9 Au     0.000000    8.675300   12.546255    ( 0.0000,  0.0000,  0.0000)
  10 Au     3.005212    8.675300   12.546255    ( 0.0000,  0.0000,  0.0000)
  11 Au     6.010424    8.675300   12.546255    ( 0.0000,  0.0000,  0.0000)
  12 Au     0.000000    1.735060   15.000000    ( 0.0000,  0.0000,  0.0000)
  13 Au     3.005212    1.735060   15.000000    ( 0.0000,  0.0000,  0.0000)
  14 Au     6.010424    1.735060   15.000000    ( 0.0000,  0.0000,  0.0000)
  15 Au     1.502606    4.337650   15.000000    ( 0.0000,  0.0000,  0.0000)
  16 Au     4.507818    4.337650   15.000000    ( 0.0000,  0.0000,  0.0000)
  17 Au     7.513030    4.337650   15.000000    ( 0.0000,  0.0000,  0.0000)
  18 Au     0.000000    6.940240   15.000000    ( 0.0000,  0.0000,  0.0000)
  19 Au     3.005212    6.940240   15.000000    ( 0.0000,  0.0000,  0.0000)
  20 Au     6.010424    6.940240   15.000000    ( 0.0000,  0.0000,  0.0000)
  21 Au     1.502606    9.542830   15.000000    ( 0.0000,  0.0000,  0.0000)
  22 Au     4.507818    9.542830   15.000000    ( 0.0000,  0.0000,  0.0000)
  23 Au     7.513030    9.542830   15.000000    ( 0.0000,  0.0000,  0.0000)
  24 Au     0.000000   -0.000274   17.471614    ( 0.0000,  0.0000,  0.0000)
  25 Au     3.005212   -0.000274   17.471614    ( 0.0000,  0.0000,  0.0000)
  26 Au     6.010424   -0.000274   17.471614    ( 0.0000,  0.0000,  0.0000)
  27 Au     1.502606    2.602313   17.471614    ( 0.0000,  0.0000,  0.0000)
  28 Au     4.507818    2.602313   17.471613    ( 0.0000,  0.0000,  0.0000)
  29 Au     7.513030    2.602313   17.471614    ( 0.0000,  0.0000,  0.0000)
  30 Au    -0.000000    5.204906   17.471614    ( 0.0000,  0.0000,  0.0000)
  31 Au     3.005212    5.204906   17.471614    ( 0.0000,  0.0000,  0.0000)
  32 Au     6.010424    5.204906   17.471614    ( 0.0000,  0.0000,  0.0000)
  33 Au     1.502606    7.807492   17.471613    ( 0.0000,  0.0000,  0.0000)
  34 Au     4.507818    7.807492   17.471613    ( 0.0000,  0.0000,  0.0000)
  35 Au     7.513030    7.807492   17.471613    ( 0.0000,  0.0000,  0.0000)

Unit cell:
           periodic     x           y           z      points  spacing
  1. axis:    yes    9.015636    0.000000    0.000000    48     0.1878
  2. axis:    yes    0.000000   10.410360    0.000000    54     0.1928
  3. axis:    no     0.000000    0.000000   30.000000   160     0.1875

  Lengths:   9.015636  10.410360  30.000000
  Angles:   90.000000  90.000000  90.000000

Effective grid spacing dv^(1/3) = 0.1894

     iter     time        total  log10-change:
                         energy   eigst   dens
iter:   1 10:37:32 -12024.950115   -2.91
iter:   2 10:37:48 -12024.934286   -4.51  -2.54
iter:   3 10:38:04 -12024.886777c  -3.42  -2.58
iter:   4 10:38:20 -12024.885182c  -5.12  -3.13
iter:   5 10:38:36 -12024.883936c  -4.79  -3.19
iter:   6 10:38:52 -12024.883582c  -5.04  -3.28
iter:   7 10:39:08 -12024.883075c  -5.46  -3.41
iter:   8 10:39:24 -12024.883073c  -6.63  -3.58
iter:   9 10:39:41 -12024.882883c  -5.53  -3.58
iter:  10 10:39:57 -12024.882857c  -6.37  -4.03c
iter:  11 10:40:13 -12024.882856c  -7.27  -4.32c
iter:  12 10:40:29 -12024.882853c  -7.30  -4.33c
iter:  13 10:40:45 -12024.882865c  -7.16  -4.30c
iter:  14 10:41:01 -12024.882869c  -7.05  -4.32c
iter:  15 10:41:17 -12024.882870c  -8.21c -4.35c

Converged after 15 iterations.

Dipole moment: (-0.000000, -0.012641, -0.004425) |e|*Ang

Energy contributions relative to reference atoms: (reference = -18597537.759934)

Kinetic:       +673.962756
Potential:     -678.752564
External:        +0.000000
XC:            -12022.300141
Entropy (-ST):   -0.383392
Local:           +2.398776
SIC:             +0.000000
--------------------------
Free energy:   -12025.074565
Extrapolated:  -12024.882870

Showing only first 2 kpts
 Kpt  Band  Eigenvalues  Occupancy
  0   196     -2.96468    1.99959
  0   197     -2.14642    1.15108
  0   198     -2.14642    1.15106
  0   199     -2.01892    0.54952

  1   196     -2.67535    1.99259
  1   197     -2.50486    1.95988
  1   198     -2.04358    0.65305
  1   199     -1.88649    0.18310


Fermi level: -2.11598

No gap
No difference between direct/indirect transitions

Forces in eV/Ang:
  0 Au   -0.00000    0.00115   -0.06473
  1 Au    0.00000    0.00115   -0.06473
  2 Au    0.00000    0.00115   -0.06473
  3 Au    0.00000    0.00114   -0.06473
  4 Au   -0.00000    0.00114   -0.06473
  5 Au    0.00000    0.00114   -0.06473
  6 Au    0.00000    0.00115   -0.06473
  7 Au    0.00000    0.00115   -0.06473
  8 Au   -0.00000    0.00115   -0.06473
  9 Au    0.00000    0.00114   -0.06473
 10 Au   -0.00000    0.00114   -0.06473
 11 Au    0.00000    0.00114   -0.06473
 12 Au    0.00000   -0.00015    0.04848
 13 Au    0.00000   -0.00015    0.04848
 14 Au   -0.00000   -0.00015    0.04848
 15 Au    0.00000   -0.00015    0.04849
 16 Au    0.00000   -0.00015    0.04849
 17 Au   -0.00000   -0.00015    0.04849
 18 Au    0.00000   -0.00015    0.04848
 19 Au    0.00000   -0.00015    0.04848
 20 Au   -0.00000   -0.00015    0.04848
 21 Au    0.00000   -0.00015    0.04849
 22 Au    0.00000   -0.00015    0.04849
 23 Au   -0.00000   -0.00015    0.04849
 24 Au    0.00000   -0.00115    0.02407
 25 Au   -0.00000   -0.00115    0.02407
 26 Au    0.00000   -0.00115    0.02407
 27 Au    0.00000   -0.00114    0.02407
 28 Au    0.00000   -0.00114    0.02407
 29 Au   -0.00000   -0.00114    0.02407
 30 Au    0.00000   -0.00115    0.02407
 31 Au    0.00000   -0.00115    0.02407
 32 Au   -0.00000   -0.00115    0.02407
 33 Au   -0.00000   -0.00114    0.02407
 34 Au    0.00000   -0.00114    0.02407
 35 Au    0.00000   -0.00114    0.02407

Timing:                                      incl.     excl.
-------------------------------------------------------------------
Density initialized from wave functions:     2.587     2.468   0.3% |
 Symmetrize density:                         0.119     0.119   0.0% |
Forces:                                     16.257    16.257   2.2% ||
Hamiltonian:                                20.193     0.028   0.0% |
 Atomic:                                     0.365     0.002   0.0% |
  XC Correction:                             0.363     0.363   0.0% |
 Calculate atomic Hamiltonians:              1.576     1.576   0.2% |
 Communicate:                                0.398     0.398   0.1% |
 Initialize Hamiltonian:                     0.001     0.001   0.0% |
 Poisson:                                    0.013     0.013   0.0% |
 XC 3D grid:                                17.812     3.092   0.4% |
  VdW-DF integral:                          14.720     0.475   0.1% |
   Convolution:                              1.190     1.190   0.2% |
   FFT:                                      0.386     0.386   0.1% |
   gather:                                   3.068     3.068   0.4% |
   hmm1:                                     0.361     0.361   0.0% |
   hmm2:                                     0.666     0.666   0.1% |
   iFFT:                                     0.402     0.402   0.1% |
   potential:                                4.145     0.065   0.0% |
    collect:                                 0.307     0.307   0.0% |
    p1:                                      2.068     2.068   0.3% |
    p2:                                      1.092     1.092   0.1% |
    sum:                                     0.613     0.613   0.1% |
   splines:                                  4.028     4.028   0.5% |
LCAO initialization:                        15.335     0.050   0.0% |
 LCAO eigensolver:                           1.607     0.000   0.0% |
  Calculate projections:                     0.000     0.000   0.0% |
  DenseAtomicCorrection:                     0.000     0.000   0.0% |
  Distribute overlap matrix:                 1.511     1.511   0.2% |
  Orbital Layouts:                           0.073     0.073   0.0% |
  Potential matrix:                          0.018     0.018   0.0% |
  Sum over cells:                            0.006     0.006   0.0% |
 LCAO to grid:                              13.295    13.295   1.8% ||
 Set positions (LCAO WFS):                   0.382     0.327   0.0% |
  Basic WFS set positions:                   0.002     0.002   0.0% |
  Basis functions set positions:             0.000     0.000   0.0% |
  P tci:                                     0.000     0.000   0.0% |
  ST tci:                                    0.036     0.036   0.0% |
  mktci:                                     0.017     0.017   0.0% |
PWDescriptor:                                0.068     0.068   0.0% |
Redistribute:                                0.001     0.001   0.0% |
SCF-cycle:                                 687.605     1.408   0.2% |
 Davidson:                                 407.262    98.113  13.1% |----|
  Apply H:                                  42.670    41.747   5.6% |-|
   HMM T:                                    0.923     0.923   0.1% |
  Subspace diag:                            70.140     0.005   0.0% |
   calc_h_matrix:                           52.358    10.000   1.3% ||
    Apply H:                                42.358    41.408   5.5% |-|
     HMM T:                                  0.950     0.950   0.1% |
   diagonalize:                              1.428     1.428   0.2% |
   rotate_psi:                              16.350    16.350   2.2% ||
  calc. matrices:                          146.925    62.174   8.3% |--|
   Apply H:                                 84.751    82.884  11.1% |---|
    HMM T:                                   1.867     1.867   0.3% |
  diagonalize:                              18.504    18.504   2.5% ||
  rotate_psi:                               30.908    30.908   4.1% |-|
 Density:                                   53.347     0.001   0.0% |
  Atomic density matrices:                   0.166     0.166   0.0% |
  Mix:                                      28.447    28.447   3.8% |-|
  Multipole moments:                         0.016     0.016   0.0% |
  Pseudo density:                           24.718    22.275   3.0% ||
   Symmetrize density:                       2.443     2.443   0.3% |
 Hamiltonian:                              223.130     0.379   0.1% |
  Atomic:                                    4.996     0.026   0.0% |
   XC Correction:                            4.970     4.970   0.7% |
  Calculate atomic Hamiltonians:            21.461    21.461   2.9% ||
  Communicate:                               5.285     5.285   0.7% |
  Poisson:                                   0.164     0.164   0.0% |
  XC 3D grid:                              190.846    42.353   5.7% |-|
   VdW-DF integral:                        148.494     6.412   0.9% |
    Convolution:                            15.965    15.965   2.1% ||
    FFT:                                     5.726     5.726   0.8% |
    gather:                                 43.652    43.652   5.8% |-|
    hmm1:                                    4.629     4.629   0.6% |
    hmm2:                                    9.249     9.249   1.2% |
    iFFT:                                    5.304     5.304   0.7% |
    potential:                              57.557     0.945   0.1% |
     collect:                                4.175     4.175   0.6% |
     p1:                                    28.633    28.633   3.8% |-|
     p2:                                    14.923    14.923   2.0% ||
     sum:                                    8.881     8.881   1.2% |
    splines:                                 0.000     0.000   0.0% |
 Orthonormalize:                             2.457     0.000   0.0% |
  calc_s_matrix:                             0.325     0.325   0.0% |
  inverse-cholesky:                          0.053     0.053   0.0% |
  projections:                               1.523     1.523   0.2% |
  rotate_psi_s:                              0.556     0.556   0.1% |
Set symmetry:                                0.001     0.001   0.0% |
Other:                                       4.506     4.506   0.6% |
-------------------------------------------------------------------
Total:                                               746.552 100.0%

Memory usage: 3.45 GiB
Date: Thu Apr 24 10:41:22 2025
