
  ___ ___ ___ _ _ _  
 |   |   |_  | | | | 
 | | | | | . | | | | 
 |__ |  _|___|_____|  25.1.1b1
 |___|_|             

User:   dmapa@x012.nifl.fysik.dtu.dk
Date:   Tue Apr 22 01:54:11 2025
Arch:   x86_64
Pid:    23222
CWD:    /home/cat/dmapa/gpaw/dissads/tree/surfaces/BEEF-Ni/min_surf/relax
Python: 3.11.3
gpaw:   /home/cat/dmapa/bin/venv-asrlib/gpaw/gpaw (55eb60cdf0)
_gpaw:  /home/cat/dmapa/bin/venv-asrlib/gpaw/build/lib.linux-x86_64-broadwell_el8-cpython-311/
        _gpaw.cpython-311-x86_64-linux-gnu.so (55eb60cdf0)
ase:    /home/cat/dmapa/bin/venv-asrlib/ase/ase (version 3.26.0b1-f4168b42a5)
numpy:  /home/modules/software/SciPy-bundle/2023.07-gfbf-2023a/lib/python3.11/site-packages/numpy (version 1.25.1)
scipy:  /home/modules/software/SciPy-bundle/2023.07-gfbf-2023a/lib/python3.11/site-packages/scipy (version 1.11.1)
libxc:  6.2.2
units:  Angstrom and eV
cores: 24
OpenMP: False
OMP_NUM_THREADS: 1

Input parameters:
  kpts: {size: [4, 3, 1]}
  mixer: {backend: pulay,
          beta: 0.02,
          method: fullspin,
          nmaxold: 5,
          weight: 50.0}
  mode: {ecut: 500,
         name: pw}
  spinpol: True
  xc: BEEF-vdW

System changes: positions, numbers, cell, pbc, initial_charges, initial_magmoms 

Initialize ...

species:
  Ni:
    name: Nickel
    id: 0d9f38a9d6e76a2886f07bb4381f212b
    Z: 28.0
    valence: 16
    core: 12
    charge: 0.0
    file: /home/modules/software/GPAW-setups/24.11.0/Ni.PBE.gz
    compensation charges: {type: gauss,
                           rc: 0.36,
                           lmax: 2}
    cutoffs: {filter: 2.14,
              core: 1.98}
    projectors:
      #              energy  rcut
      - 4s(2.00)    -5.642   1.164
      - 3p(6.00)   -71.394   1.207
      - 4p(0.00)    -1.226   1.207
      - 3d(8.00)    -8.875   1.138
      -  s          21.570   1.164
      -  d          18.337   1.138
  
    # Using partial waves for Ni as LCAO basis

Reference energy: -1489247.944103  # eV

Spin-polarized calculation.
Magnetic moment: 0.000000

Convergence criteria:
 Maximum [total energy] change in last 3 cyles: 0.0005 eV / valence electron
 Maximum integral of absolute [dens]ity change: 0.0001 electrons / valence electron
 Maximum integral of absolute [eigenst]ate change: 4e-08 eV^2 / valence electron
 Maximum number of scf [iter]ations: 333
 (Square brackets indicate name in SCF output, whereas a 'c' in
 the SCF output indicates the quantity has converged.)

Symmetries present (total): 2

  ( 1  0  0)  (-1  0  0)
  ( 0  1  0)  ( 0  1  0)
  ( 0  0  1)  ( 0  0  1)

12 k-points: 4 x 3 x 1 Monkhorst-Pack grid
4 k-points in the irreducible part of the Brillouin zone
       k-points in crystal coordinates                weights
   0:     0.12500000    0.00000000    0.00000000          2/12
   1:     0.12500000    0.33333333    0.00000000          4/12
   2:     0.37500000    0.00000000    0.00000000          2/12
   3:     0.37500000    0.33333333    0.00000000          4/12

Wave functions: Plane wave expansion
  Cutoff energy: 500.000 eV
  Number of coefficients (min, max): 50165, 50256
  Pulay-stress correction: 0.000000 eV/Ang^3 (de/decut=0.000000)
  Using FFTW library
  ScaLapack parameters: grid=1x1, blocksize=None
  Wavefunction extrapolation:
    Improved wavefunction reuse through dual PAW basis 

Occupation numbers: Fermi-Dirac:
  width: 0.1000  # eV
 

Eigensolver
   Davidson(niter=2) 

Densities:
  Coarse grid: 40*48*160 grid
  Fine grid: 80*96*320 grid
  Total Charge: 0.000000 

Density mixing:
  Method: fullspin
  Backend: pulay
  Linear mixing parameter: 0.02
  old densities: 5
  Damping of long wavelength oscillations: 50 

Hamiltonian:
  XC and Coulomb potentials evaluated on a 80*96*320 grid
  Using the BEEF-vdW Exchange-Correlation functional
  External potential:
    NoExternalPotential
 

XC parameters: BEEF-vdW with 2 nearest neighbor stencil

Memory estimate:
  Process memory now: 300.05 MiB
  Calculator: 204.77 MiB
    Density: 26.65 MiB
      Arrays: 13.84 MiB
      Localized functions: 8.85 MiB
      Mixer: 3.96 MiB
    Hamiltonian: 10.46 MiB
      Arrays: 10.28 MiB
      XC: 0.00 MiB
      Poisson: 0.00 MiB
      vbar: 0.18 MiB
    Wavefunctions: 167.66 MiB
      Arrays psit_nG: 89.47 MiB
      Eigensolver: 64.07 MiB
      Projections: 1.15 MiB
      Projectors: 0.96 MiB
      PW-descriptor: 12.01 MiB

Total number of cores used: 24
Parallelization over k-points: 4
Domain decomposition: 1 x 1 x 6

Number of atoms: 36
Number of atomic orbitals: 432
Number of bands in calculation: 350
Number of valence electrons: 576
Bands to converge: occupied

... initialized

Initializing position-dependent things.

Density initialized from atomic densities
Creating initial wave functions:
  350 bands from LCAO basis set

      .------------------.  
     /|                  |  
    / |                  |  
   /  |                  |  
  /   |                  |  
 *    |                  |  
 |    |                  |  
 |    |                  |  
 |    |                  |  
 |    |                  |  
 |    |                  |  
 |    |                  |  
 |    |                  |  
 |    |                  |  
 |    |                  |  
 |    |                  |  
 |    |                  |  
 |    | Ni    Ni     Ni  |  
 | Ni |   Ni    Ni       |  
 |    |  Ni    Ni    Ni  |  
 |  NNi    NNi   NNi     |  
 Ni   NNi    NNi   Ni    |  
 |   Ni    Ni     Ni     |  
 |Ni  |NNi   NiNi   Ni   |  
 | Ni |  Ni    Ni        |  
 |    |                  |  
 |   Ni    Ni    Ni      |  
 |    |                  |  
 |    |                  |  
 |    |                  |  
 |    |                  |  
 |    |                  |  
 |    |                  |  
 |    |                  |  
 |    |                  |  
 |    |                  |  
 |    |                  |  
 |    .------------------.  
 |   /                  /   
 |  /                  /    
 | /                  /     
 |/                  /      
 *------------------*       

Positions:
   0 Ni     1.259693    0.727284   12.942930    ( 0.0000,  0.0000,  0.0000)
   1 Ni     3.779079    0.727284   12.942930    ( 0.0000,  0.0000,  0.0000)
   2 Ni     6.298464    0.727284   12.942930    ( 0.0000,  0.0000,  0.0000)
   3 Ni     0.000000    2.909136   12.942930    ( 0.0000,  0.0000,  0.0000)
   4 Ni     2.519386    2.909136   12.942930    ( 0.0000,  0.0000,  0.0000)
   5 Ni     5.038772    2.909136   12.942930    ( 0.0000,  0.0000,  0.0000)
   6 Ni     1.259693    5.090988   12.942930    ( 0.0000,  0.0000,  0.0000)
   7 Ni     3.779079    5.090988   12.942930    ( 0.0000,  0.0000,  0.0000)
   8 Ni     6.298464    5.090988   12.942930    ( 0.0000,  0.0000,  0.0000)
   9 Ni     0.000000    7.272840   12.942930    ( 0.0000,  0.0000,  0.0000)
  10 Ni     2.519386    7.272840   12.942930    ( 0.0000,  0.0000,  0.0000)
  11 Ni     5.038772    7.272840   12.942930    ( 0.0000,  0.0000,  0.0000)
  12 Ni     0.000000    1.454568   15.000000    ( 0.0000,  0.0000,  0.0000)
  13 Ni     2.519386    1.454568   15.000000    ( 0.0000,  0.0000,  0.0000)
  14 Ni     5.038772    1.454568   15.000000    ( 0.0000,  0.0000,  0.0000)
  15 Ni     1.259693    3.636420   15.000000    ( 0.0000,  0.0000,  0.0000)
  16 Ni     3.779079    3.636420   15.000000    ( 0.0000,  0.0000,  0.0000)
  17 Ni     6.298464    3.636420   15.000000    ( 0.0000,  0.0000,  0.0000)
  18 Ni     0.000000    5.818272   15.000000    ( 0.0000,  0.0000,  0.0000)
  19 Ni     2.519386    5.818272   15.000000    ( 0.0000,  0.0000,  0.0000)
  20 Ni     5.038772    5.818272   15.000000    ( 0.0000,  0.0000,  0.0000)
  21 Ni     1.259693    8.000124   15.000000    ( 0.0000,  0.0000,  0.0000)
  22 Ni     3.779079    8.000124   15.000000    ( 0.0000,  0.0000,  0.0000)
  23 Ni     6.298464    8.000124   15.000000    ( 0.0000,  0.0000,  0.0000)
  24 Ni     0.000000    0.000000   17.057070    ( 0.0000,  0.0000,  0.0000)
  25 Ni     2.519386    0.000000   17.057070    ( 0.0000,  0.0000,  0.0000)
  26 Ni     5.038772    0.000000   17.057070    ( 0.0000,  0.0000,  0.0000)
  27 Ni     1.259693    2.181852   17.057070    ( 0.0000,  0.0000,  0.0000)
  28 Ni     3.779079    2.181852   17.057070    ( 0.0000,  0.0000,  0.0000)
  29 Ni     6.298464    2.181852   17.057070    ( 0.0000,  0.0000,  0.0000)
  30 Ni     0.000000    4.363704   17.057070    ( 0.0000,  0.0000,  0.0000)
  31 Ni     2.519386    4.363704   17.057070    ( 0.0000,  0.0000,  0.0000)
  32 Ni     5.038772    4.363704   17.057070    ( 0.0000,  0.0000,  0.0000)
  33 Ni     1.259693    6.545556   17.057070    ( 0.0000,  0.0000,  0.0000)
  34 Ni     3.779079    6.545556   17.057070    ( 0.0000,  0.0000,  0.0000)
  35 Ni     6.298464    6.545556   17.057070    ( 0.0000,  0.0000,  0.0000)

Unit cell:
           periodic     x           y           z      points  spacing
  1. axis:    yes    7.558157    0.000000    0.000000    40     0.1890
  2. axis:    yes    0.000000    8.727408    0.000000    48     0.1818
  3. axis:    no     0.000000    0.000000   30.000000   160     0.1875

  Lengths:   7.558157   8.727408  30.000000
  Angles:   90.000000  90.000000  90.000000

Effective grid spacing dv^(1/3) = 0.1861

     iter     time        total  log10-change:  magmom
                         energy   eigst   dens
iter:   1 01:55:53 -2732.570553                   +0.0000
iter:   2 01:56:22 -2728.136162   -0.47  -1.35    -0.0000
iter:   3 01:56:52 -2708.544313   -0.78  -1.38    -0.0000
iter:   4 01:57:21 -2707.613875   -1.33  -1.79    -0.0000
iter:   5 01:57:50 -2707.671234   -1.81  -1.92    -0.0000
iter:   6 01:58:19 -2707.906731   -1.96  -1.93    +0.0000
iter:   7 01:58:49 -2708.757872   -1.47  -1.99    -0.0000
iter:   8 01:59:18 -2708.337774   -2.34  -2.21    -0.0000
iter:   9 01:59:47 -2708.476090   -2.56  -2.27    -0.0000
iter:  10 02:00:17 -2708.043069   -2.42  -2.22    -0.0000
iter:  11 02:00:46 -2708.041409   -3.05  -2.81    -0.0000
iter:  12 02:01:15 -2708.068890c  -3.13  -2.80    -0.0000
iter:  13 02:01:44 -2708.035370c  -3.39  -2.78    -0.0000
iter:  14 02:02:14 -2708.031213c  -3.50  -3.05    -0.0000
iter:  15 02:02:43 -2708.023632c  -3.86  -3.34    -0.0000
iter:  16 02:03:12 -2708.023522c  -4.06  -3.52    -0.0000
iter:  17 02:03:42 -2708.022687c  -4.14  -3.53    -0.0000
iter:  18 02:04:11 -2708.021392c  -4.36  -3.55    -0.0000
iter:  19 02:04:40 -2708.021630c  -4.52  -3.83    -0.0000
iter:  20 02:05:09 -2708.021659c  -4.70  -3.93    -0.0000
iter:  21 02:05:39 -2708.021791c  -4.88  -3.94    -0.0000
iter:  22 02:06:08 -2708.021429c  -5.00  -3.96    -0.0000
iter:  23 02:06:37 -2708.021462c  -5.21  -4.44c   -0.0000
iter:  24 02:07:07 -2708.021580c  -5.37  -4.45c   -0.0000
iter:  25 02:07:36 -2708.021598c  -5.53  -4.49c   -0.0000
iter:  26 02:08:05 -2708.021594c  -5.70  -4.54c   -0.0000
iter:  27 02:08:34 -2708.021590c  -5.85  -4.59c   -0.0000
iter:  28 02:09:04 -2708.021638c  -6.03  -4.80c   -0.0000
iter:  29 02:09:33 -2708.021664c  -6.20  -4.92c   -0.0000
iter:  30 02:10:02 -2708.021671c  -6.36  -4.96c   -0.0000
iter:  31 02:10:32 -2708.021662c  -6.53  -5.00c   -0.0000
iter:  32 02:11:01 -2708.021659c  -6.70  -5.01c   -0.0000
iter:  33 02:11:30 -2708.021656c  -6.87  -5.03c   -0.0000
iter:  34 02:11:59 -2708.021650c  -7.03  -5.02c   -0.0000
iter:  35 02:12:29 -2708.021649c  -7.19  -5.12c   -0.0000
iter:  36 02:12:58 -2708.021652c  -7.35  -5.18c   -0.0000
iter:  37 02:13:27 -2708.021662c  -7.48c -5.22c   -0.0000

Converged after 37 iterations.

Dipole moment: (-0.000000, -0.132164, 0.000062) |e|*Ang

Total magnetic moment: (0.000000, 0.000000, -0.000000)
Local magnetic moments:
   0 Ni ( 0.000000,  0.000000,  0.000000)
   1 Ni ( 0.000000,  0.000000, -0.000000)
   2 Ni ( 0.000000,  0.000000,  0.000000)
   3 Ni ( 0.000000,  0.000000,  0.000000)
   4 Ni ( 0.000000,  0.000000, -0.000000)
   5 Ni ( 0.000000,  0.000000, -0.000000)
   6 Ni ( 0.000000,  0.000000,  0.000000)
   7 Ni ( 0.000000,  0.000000, -0.000000)
   8 Ni ( 0.000000,  0.000000,  0.000000)
   9 Ni ( 0.000000,  0.000000,  0.000000)
  10 Ni ( 0.000000,  0.000000, -0.000000)
  11 Ni ( 0.000000,  0.000000, -0.000000)
  12 Ni ( 0.000000,  0.000000, -0.000000)
  13 Ni ( 0.000000,  0.000000, -0.000000)
  14 Ni ( 0.000000,  0.000000, -0.000000)
  15 Ni ( 0.000000,  0.000000,  0.000000)
  16 Ni ( 0.000000,  0.000000, -0.000000)
  17 Ni ( 0.000000,  0.000000,  0.000000)
  18 Ni ( 0.000000,  0.000000, -0.000000)
  19 Ni ( 0.000000,  0.000000, -0.000000)
  20 Ni ( 0.000000,  0.000000, -0.000000)
  21 Ni ( 0.000000,  0.000000,  0.000000)
  22 Ni ( 0.000000,  0.000000, -0.000000)
  23 Ni ( 0.000000,  0.000000,  0.000000)
  24 Ni ( 0.000000,  0.000000, -0.000000)
  25 Ni ( 0.000000,  0.000000,  0.000000)
  26 Ni ( 0.000000,  0.000000,  0.000000)
  27 Ni ( 0.000000,  0.000000, -0.000000)
  28 Ni ( 0.000000,  0.000000,  0.000000)
  29 Ni ( 0.000000,  0.000000, -0.000000)
  30 Ni ( 0.000000,  0.000000, -0.000000)
  31 Ni ( 0.000000,  0.000000,  0.000000)
  32 Ni ( 0.000000,  0.000000,  0.000000)
  33 Ni ( 0.000000,  0.000000, -0.000000)
  34 Ni ( 0.000000,  0.000000,  0.000000)
  35 Ni ( 0.000000,  0.000000, -0.000000)

Energy contributions relative to reference atoms: (reference = -1489247.944103)

Kinetic:       +916.460836
Potential:     -792.719122
External:        +0.000000
XC:            -2832.968778
Entropy (-ST):   -3.673262
Local:           +3.042033
SIC:             +0.000000
--------------------------
Free energy:   -2709.858294
Extrapolated:  -2708.021662

Spin contamination: 0.000002 electrons
Showing only first 2 kpts
                      Up                     Down
 Kpt  Band  Eigenvalues  Occupancy  Eigenvalues  Occupancy
  0   286     -2.71145    0.66710     -2.71145    0.66710
  0   287     -2.70667    0.65641     -2.70667    0.65641
  0   288     -2.69993    0.64105     -2.69993    0.64105
  0   289     -2.69993    0.64105     -2.69993    0.64105

  1   286     -2.71934    0.68438     -2.71934    0.68438
  1   287     -2.70600    0.65490     -2.70600    0.65490
  1   288     -2.69438    0.62817     -2.69438    0.62817
  1   289     -2.67957    0.59298     -2.67957    0.59298


Fermi level: -2.64194

No gap
No difference between direct/indirect transitions

Forces in eV/Ang:
  0 Ni   -0.00079   -0.00255    0.06636
  1 Ni    0.00000   -0.00255    0.06667
  2 Ni    0.00079   -0.00255    0.06636
  3 Ni    0.00000   -0.00257    0.06667
  4 Ni    0.00073   -0.00258    0.06635
  5 Ni   -0.00073   -0.00258    0.06635
  6 Ni   -0.00079   -0.00256    0.06636
  7 Ni    0.00000   -0.00255    0.06666
  8 Ni    0.00079   -0.00256    0.06636
  9 Ni    0.00000   -0.00253    0.06667
 10 Ni    0.00073   -0.00254    0.06635
 11 Ni   -0.00073   -0.00254    0.06635
 12 Ni    0.00000   -0.00001   -0.00017
 13 Ni    0.00070   -0.00001   -0.00017
 14 Ni   -0.00070   -0.00001   -0.00017
 15 Ni   -0.00077   -0.00002   -0.00017
 16 Ni    0.00000   -0.00003   -0.00017
 17 Ni    0.00077   -0.00002   -0.00017
 18 Ni    0.00000    0.00001   -0.00016
 19 Ni    0.00070    0.00001   -0.00017
 20 Ni   -0.00070    0.00001   -0.00017
 21 Ni   -0.00077    0.00002   -0.00017
 22 Ni    0.00000    0.00002   -0.00017
 23 Ni    0.00077    0.00002   -0.00017
 24 Ni    0.00000    0.00256   -0.06689
 25 Ni    0.00073    0.00257   -0.06657
 26 Ni   -0.00073    0.00257   -0.06657
 27 Ni   -0.00078    0.00254   -0.06658
 28 Ni    0.00000    0.00253   -0.06689
 29 Ni    0.00078    0.00254   -0.06658
 30 Ni    0.00000    0.00254   -0.06689
 31 Ni    0.00073    0.00254   -0.06657
 32 Ni   -0.00073    0.00254   -0.06657
 33 Ni   -0.00078    0.00257   -0.06657
 34 Ni    0.00000    0.00257   -0.06688
 35 Ni    0.00078    0.00257   -0.06657

System changes: positions 

Initializing position-dependent things.

Density initialized from wave functions
      .------------------.  
     /|                  |  
    / |                  |  
   /  |                  |  
  /   |                  |  
 *    |                  |  
 |    |                  |  
 |    |                  |  
 |    |                  |  
 |    |                  |  
 |    |                  |  
 |    |                  |  
 |    |                  |  
 |    |                  |  
 |    |                  |  
 |    |                  |  
 |    |                  |  
 |    | Ni    Ni     Ni  |  
 |  Ni|   Ni    Ni       |  
 |    |  Ni    Ni    Ni  |  
 |  NNi    NNi   NNi     |  
 Ni   NNi    NNi   Ni    |  
 |   Ni    Ni     Ni     |  
 |Ni  |NNi   NiNi   Ni   |  
 | Ni |  Ni    Ni        |  
 |    |                  |  
 |   Ni    Ni    Ni      |  
 |    |                  |  
 |    |                  |  
 |    |                  |  
 |    |                  |  
 |    |                  |  
 |    |                  |  
 |    |                  |  
 |    |                  |  
 |    |                  |  
 |    |                  |  
 |    .------------------.  
 |   /                  /   
 |  /                  /    
 | /                  /     
 |/                  /      
 *------------------*       

Positions:
   0 Ni     1.259693    0.727284   12.942930    ( 0.0000,  0.0000,  0.0000)
   1 Ni     3.779079    0.727284   12.942930    ( 0.0000,  0.0000,  0.0000)
   2 Ni     6.298464    0.727284   12.942930    ( 0.0000,  0.0000,  0.0000)
   3 Ni     0.000000    2.909136   12.942930    ( 0.0000,  0.0000,  0.0000)
   4 Ni     2.519386    2.909136   12.942930    ( 0.0000,  0.0000,  0.0000)
   5 Ni     5.038772    2.909136   12.942930    ( 0.0000,  0.0000,  0.0000)
   6 Ni     1.259693    5.090988   12.942930    ( 0.0000,  0.0000,  0.0000)
   7 Ni     3.779079    5.090988   12.942930    ( 0.0000,  0.0000,  0.0000)
   8 Ni     6.298464    5.090988   12.942930    ( 0.0000,  0.0000,  0.0000)
   9 Ni     0.000000    7.272840   12.942930    ( 0.0000,  0.0000,  0.0000)
  10 Ni     2.519386    7.272840   12.942930    ( 0.0000,  0.0000,  0.0000)
  11 Ni     5.038772    7.272840   12.942930    ( 0.0000,  0.0000,  0.0000)
  12 Ni     0.000000    1.454568   15.000000    ( 0.0000,  0.0000,  0.0000)
  13 Ni     2.519386    1.454568   15.000000    ( 0.0000,  0.0000,  0.0000)
  14 Ni     5.038772    1.454568   15.000000    ( 0.0000,  0.0000,  0.0000)
  15 Ni     1.259693    3.636420   15.000000    ( 0.0000,  0.0000,  0.0000)
  16 Ni     3.779079    3.636420   15.000000    ( 0.0000,  0.0000,  0.0000)
  17 Ni     6.298464    3.636420   15.000000    ( 0.0000,  0.0000,  0.0000)
  18 Ni     0.000000    5.818272   15.000000    ( 0.0000,  0.0000,  0.0000)
  19 Ni     2.519386    5.818272   15.000000    ( 0.0000,  0.0000,  0.0000)
  20 Ni     5.038772    5.818272   15.000000    ( 0.0000,  0.0000,  0.0000)
  21 Ni     1.259693    8.000124   15.000000    ( 0.0000,  0.0000,  0.0000)
  22 Ni     3.779079    8.000124   15.000000    ( 0.0000,  0.0000,  0.0000)
  23 Ni     6.298464    8.000124   15.000000    ( 0.0000,  0.0000,  0.0000)
  24 Ni     0.000000    0.000037   17.056114    ( 0.0000,  0.0000,  0.0000)
  25 Ni     2.519396    0.000037   17.056119    ( 0.0000,  0.0000,  0.0000)
  26 Ni     5.038761    0.000037   17.056119    ( 0.0000,  0.0000,  0.0000)
  27 Ni     1.259682    2.181888   17.056119    ( 0.0000,  0.0000,  0.0000)
  28 Ni     3.779079    2.181888   17.056114    ( 0.0000,  0.0000,  0.0000)
  29 Ni     6.298476    2.181888   17.056119    ( 0.0000,  0.0000,  0.0000)
  30 Ni     0.000000    4.363740   17.056114    ( 0.0000,  0.0000,  0.0000)
  31 Ni     2.519396    4.363741   17.056119    ( 0.0000,  0.0000,  0.0000)
  32 Ni     5.038761    4.363741   17.056119    ( 0.0000,  0.0000,  0.0000)
  33 Ni     1.259682    6.545593   17.056119    ( 0.0000,  0.0000,  0.0000)
  34 Ni     3.779079    6.545593   17.056114    ( 0.0000,  0.0000,  0.0000)
  35 Ni     6.298476    6.545593   17.056119    ( 0.0000,  0.0000,  0.0000)

Unit cell:
           periodic     x           y           z      points  spacing
  1. axis:    yes    7.558157    0.000000    0.000000    40     0.1890
  2. axis:    yes    0.000000    8.727408    0.000000    48     0.1818
  3. axis:    no     0.000000    0.000000   30.000000   160     0.1875

  Lengths:   7.558157   8.727408  30.000000
  Angles:   90.000000  90.000000  90.000000

Effective grid spacing dv^(1/3) = 0.1861

     iter     time        total  log10-change:  magmom
                         energy   eigst   dens
iter:   1 02:14:11 -2708.026459   -4.63           -0.0000
iter:   2 02:14:40 -2708.025597   -5.23  -3.59    -0.0000
iter:   3 02:15:09 -2708.022758c  -5.68  -3.59    -0.0000
iter:   4 02:15:39 -2708.022430c  -6.36  -3.87    -0.0000
iter:   5 02:16:08 -2708.022377c  -6.20  -4.03c   -0.0000
iter:   6 02:16:38 -2708.022414c  -6.22  -4.26c   -0.0000
iter:   7 02:17:07 -2708.022424c  -7.03  -4.50c   -0.0000
iter:   8 02:17:36 -2708.022413c  -7.45c -4.49c   -0.0000

Converged after 8 iterations.

Dipole moment: (-0.000000, -0.135880, 0.000308) |e|*Ang

Total magnetic moment: (0.000000, 0.000000, -0.000001)
Local magnetic moments:
   0 Ni ( 0.000000,  0.000000,  0.000000)
   1 Ni ( 0.000000,  0.000000, -0.000000)
   2 Ni ( 0.000000,  0.000000,  0.000000)
   3 Ni ( 0.000000,  0.000000,  0.000000)
   4 Ni ( 0.000000,  0.000000, -0.000000)
   5 Ni ( 0.000000,  0.000000, -0.000000)
   6 Ni ( 0.000000,  0.000000,  0.000000)
   7 Ni ( 0.000000,  0.000000, -0.000000)
   8 Ni ( 0.000000,  0.000000,  0.000000)
   9 Ni ( 0.000000,  0.000000,  0.000000)
  10 Ni ( 0.000000,  0.000000, -0.000000)
  11 Ni ( 0.000000,  0.000000, -0.000000)
  12 Ni ( 0.000000,  0.000000,  0.000000)
  13 Ni ( 0.000000,  0.000000, -0.000000)
  14 Ni ( 0.000000,  0.000000, -0.000000)
  15 Ni ( 0.000000,  0.000000,  0.000000)
  16 Ni ( 0.000000,  0.000000, -0.000000)
  17 Ni ( 0.000000,  0.000000,  0.000000)
  18 Ni ( 0.000000,  0.000000,  0.000000)
  19 Ni ( 0.000000,  0.000000, -0.000000)
  20 Ni ( 0.000000,  0.000000, -0.000000)
  21 Ni ( 0.000000,  0.000000,  0.000000)
  22 Ni ( 0.000000,  0.000000, -0.000000)
  23 Ni ( 0.000000,  0.000000,  0.000000)
  24 Ni ( 0.000000,  0.000000, -0.000000)
  25 Ni ( 0.000000,  0.000000,  0.000000)
  26 Ni ( 0.000000,  0.000000,  0.000000)
  27 Ni ( 0.000000,  0.000000, -0.000000)
  28 Ni ( 0.000000,  0.000000,  0.000000)
  29 Ni ( 0.000000,  0.000000, -0.000000)
  30 Ni ( 0.000000,  0.000000, -0.000000)
  31 Ni ( 0.000000,  0.000000,  0.000000)
  32 Ni ( 0.000000,  0.000000,  0.000000)
  33 Ni ( 0.000000,  0.000000, -0.000000)
  34 Ni ( 0.000000,  0.000000,  0.000000)
  35 Ni ( 0.000000,  0.000000, -0.000000)

Energy contributions relative to reference atoms: (reference = -1489247.944103)

Kinetic:       +916.441202
Potential:     -792.684676
External:        +0.000000
XC:            -2832.984407
Entropy (-ST):   -3.673259
Local:           +3.042098
SIC:             +0.000000
--------------------------
Free energy:   -2709.859043
Extrapolated:  -2708.022413

Spin contamination: 0.000002 electrons
Showing only first 2 kpts
                      Up                     Down
 Kpt  Band  Eigenvalues  Occupancy  Eigenvalues  Occupancy
  0   286     -2.71171    0.66722     -2.71171    0.66722
  0   287     -2.70720    0.65714     -2.70720    0.65714
  0   288     -2.70014    0.64105     -2.70014    0.64105
  0   289     -2.70014    0.64105     -2.70014    0.64105

  1   286     -2.71947    0.68422     -2.71947    0.68422
  1   287     -2.70608    0.65461     -2.70608    0.65461
  1   288     -2.69438    0.62770     -2.69438    0.62770
  1   289     -2.67961    0.59259     -2.67961    0.59259


Fermi level: -2.64215

No gap
No difference between direct/indirect transitions

Forces in eV/Ang:
  0 Ni   -0.00107   -0.00256    0.06437
  1 Ni    0.00000   -0.00254    0.06464
  2 Ni    0.00107   -0.00256    0.06437
  3 Ni    0.00000   -0.00244    0.06471
  4 Ni    0.00044   -0.00243    0.06437
  5 Ni   -0.00044   -0.00243    0.06437
  6 Ni   -0.00107   -0.00252    0.06439
  7 Ni    0.00000   -0.00250    0.06466
  8 Ni    0.00107   -0.00252    0.06439
  9 Ni    0.00000   -0.00264    0.06471
 10 Ni    0.00044   -0.00264    0.06437
 11 Ni   -0.00044   -0.00264    0.06437
 12 Ni    0.00000    0.00005    0.00223
 13 Ni    0.00036    0.00004    0.00217
 14 Ni   -0.00036    0.00004    0.00217
 15 Ni   -0.00112    0.00011    0.00226
 16 Ni    0.00000    0.00013    0.00218
 17 Ni    0.00112    0.00011    0.00226
 18 Ni    0.00000   -0.00002    0.00227
 19 Ni    0.00036   -0.00004    0.00220
 20 Ni   -0.00036   -0.00004    0.00220
 21 Ni   -0.00113   -0.00011    0.00224
 22 Ni    0.00000   -0.00009    0.00217
 23 Ni    0.00113   -0.00011    0.00224
 24 Ni    0.00000    0.00256   -0.06725
 25 Ni    0.00044    0.00254   -0.06684
 26 Ni   -0.00044    0.00254   -0.06684
 27 Ni   -0.00108    0.00268   -0.06689
 28 Ni    0.00000    0.00268   -0.06715
 29 Ni    0.00108    0.00268   -0.06689
 30 Ni    0.00000    0.00267   -0.06720
 31 Ni    0.00045    0.00266   -0.06680
 32 Ni   -0.00045    0.00266   -0.06680
 33 Ni   -0.00108    0.00254   -0.06685
 34 Ni    0.00000    0.00252   -0.06712
 35 Ni    0.00108    0.00254   -0.06685

System changes: positions 

Initializing position-dependent things.

Density initialized from wave functions
      .------------------.  
     /|                  |  
    / |                  |  
   /  |                  |  
  /   |                  |  
 *    |                  |  
 |    |                  |  
 |    |                  |  
 |    |                  |  
 |    |                  |  
 |    |                  |  
 |    |                  |  
 |    |                  |  
 |    |                  |  
 |    |                  |  
 |    |                  |  
 |    |                  |  
 |    | Ni    Ni     Ni  |  
 |    |                  |  
 |  Ni|  NNi   NNi   Ni  |  
 |  NNi    NNi   NNi     |  
 Ni   NNi    NNi   Ni    |  
 |   Ni    Ni     Ni     |  
 |Ni  |NNi   NiNi   Ni   |  
 | Ni |  Ni    Ni        |  
 |    |                  |  
 |   Ni    Ni    Ni      |  
 |    |                  |  
 |    |                  |  
 |    |                  |  
 |    |                  |  
 |    |                  |  
 |    |                  |  
 |    |                  |  
 |    |                  |  
 |    |                  |  
 |    |                  |  
 |    .------------------.  
 |   /                  /   
 |  /                  /    
 | /                  /     
 |/                  /      
 *------------------*       

Positions:
   0 Ni     1.259693    0.727284   12.942930    ( 0.0000,  0.0000,  0.0000)
   1 Ni     3.779079    0.727284   12.942930    ( 0.0000,  0.0000,  0.0000)
   2 Ni     6.298464    0.727284   12.942930    ( 0.0000,  0.0000,  0.0000)
   3 Ni     0.000000    2.909136   12.942930    ( 0.0000,  0.0000,  0.0000)
   4 Ni     2.519386    2.909136   12.942930    ( 0.0000,  0.0000,  0.0000)
   5 Ni     5.038772    2.909136   12.942930    ( 0.0000,  0.0000,  0.0000)
   6 Ni     1.259693    5.090988   12.942930    ( 0.0000,  0.0000,  0.0000)
   7 Ni     3.779079    5.090988   12.942930    ( 0.0000,  0.0000,  0.0000)
   8 Ni     6.298464    5.090988   12.942930    ( 0.0000,  0.0000,  0.0000)
   9 Ni     0.000000    7.272840   12.942930    ( 0.0000,  0.0000,  0.0000)
  10 Ni     2.519386    7.272840   12.942930    ( 0.0000,  0.0000,  0.0000)
  11 Ni     5.038772    7.272840   12.942930    ( 0.0000,  0.0000,  0.0000)
  12 Ni     0.000000    1.454568   15.000000    ( 0.0000,  0.0000,  0.0000)
  13 Ni     2.519386    1.454568   15.000000    ( 0.0000,  0.0000,  0.0000)
  14 Ni     5.038772    1.454568   15.000000    ( 0.0000,  0.0000,  0.0000)
  15 Ni     1.259693    3.636420   15.000000    ( 0.0000,  0.0000,  0.0000)
  16 Ni     3.779079    3.636420   15.000000    ( 0.0000,  0.0000,  0.0000)
  17 Ni     6.298464    3.636420   15.000000    ( 0.0000,  0.0000,  0.0000)
  18 Ni     0.000000    5.818272   15.000000    ( 0.0000,  0.0000,  0.0000)
  19 Ni     2.519386    5.818272   15.000000    ( 0.0000,  0.0000,  0.0000)
  20 Ni     5.038772    5.818272   15.000000    ( 0.0000,  0.0000,  0.0000)
  21 Ni     1.259693    8.000124   15.000000    ( 0.0000,  0.0000,  0.0000)
  22 Ni     3.779079    8.000124   15.000000    ( 0.0000,  0.0000,  0.0000)
  23 Ni     6.298464    8.000124   15.000000    ( 0.0000,  0.0000,  0.0000)
  24 Ni     0.000000    0.007631   16.856259    ( 0.0000,  0.0000,  0.0000)
  25 Ni     2.520706    0.007589   16.857490    ( 0.0000,  0.0000,  0.0000)
  26 Ni     5.037452    0.007589   16.857490    ( 0.0000,  0.0000,  0.0000)
  27 Ni     1.256461    2.189853   16.857339    ( 0.0000,  0.0000,  0.0000)
  28 Ni     3.779079    2.189849   16.856555    ( 0.0000,  0.0000,  0.0000)
  29 Ni     6.301697    2.189853   16.857339    ( 0.0000,  0.0000,  0.0000)
  30 Ni    -0.000000    4.371684   16.856418    ( 0.0000,  0.0000,  0.0000)
  31 Ni     2.520725    4.371659   16.857612    ( 0.0000,  0.0000,  0.0000)
  32 Ni     5.037432    4.371659   16.857612    ( 0.0000,  0.0000,  0.0000)
  33 Ni     1.256475    6.553136   16.857459    ( 0.0000,  0.0000,  0.0000)
  34 Ni     3.779079    6.553074   16.856645    ( 0.0000,  0.0000,  0.0000)
  35 Ni     6.301682    6.553136   16.857459    ( 0.0000,  0.0000,  0.0000)

Unit cell:
           periodic     x           y           z      points  spacing
  1. axis:    yes    7.558157    0.000000    0.000000    40     0.1890
  2. axis:    yes    0.000000    8.727408    0.000000    48     0.1818
  3. axis:    no     0.000000    0.000000   30.000000   160     0.1875

  Lengths:   7.558157   8.727408  30.000000
  Angles:   90.000000  90.000000  90.000000

Effective grid spacing dv^(1/3) = 0.1861

     iter     time        total  log10-change:  magmom
                         energy   eigst   dens
iter:   1 02:18:20 -2756.817747   -0.02           -0.0000
iter:   2 02:18:49 -2718.013829   -0.81  -1.38    -0.0000
iter:   3 02:19:19 -2718.842876   -1.06  -1.59    -0.0000
iter:   4 02:19:48 -2711.425675   -1.68  -1.73    -0.0000
iter:   5 02:20:17 -2711.039136   -1.56  -1.86    -0.0000
iter:   6 02:20:47 -2710.026500   -1.61  -1.94    -0.0000
iter:   7 02:21:16 -2707.976582   -2.24  -2.09    -0.0000
iter:   8 02:21:45 -2707.420824   -2.72  -2.15    -0.0000
iter:   9 02:22:15 -2707.113931   -2.66  -2.22    -0.0000
iter:  10 02:22:44 -2706.860245   -2.98  -2.44    -0.0000
iter:  11 02:23:13 -2706.825181   -3.25  -2.65    -0.0000
iter:  12 02:23:43 -2706.795645c  -3.77  -2.76    -0.0000
iter:  13 02:24:12 -2706.776384c  -4.00  -2.75    -0.0000
iter:  14 02:24:42 -2706.758602c  -3.67  -2.81    +0.0000
iter:  15 02:25:11 -2706.743861c  -3.76  -2.91    +0.0000
iter:  16 02:25:40 -2706.742802c  -4.37  -3.00    +0.0000
iter:  17 02:26:10 -2706.741549c  -4.69  -3.02    +0.0000
iter:  18 02:26:39 -2706.738549c  -4.43  -3.04    +0.0000
iter:  19 02:27:08 -2706.739992c  -4.03  -3.22    +0.0000
iter:  20 02:27:38 -2706.733717c  -4.86  -3.18    +0.0000
iter:  21 02:28:07 -2706.731013c  -4.84  -3.33    +0.0000
iter:  22 02:28:36 -2706.731011c  -5.39  -3.52    +0.0000
iter:  23 02:29:06 -2706.732262c  -5.04  -3.51    +0.0000
iter:  24 02:29:35 -2706.731635c  -4.72  -3.40    +0.0000
iter:  25 02:30:05 -2706.730753c  -5.68  -3.51    +0.0000
iter:  26 02:30:34 -2706.730769c  -6.19  -3.61    +0.0000
iter:  27 02:31:04 -2706.730713c  -6.34  -3.61    +0.0000
iter:  28 02:31:33 -2706.730698c  -6.00  -3.62    +0.0000
iter:  29 02:32:02 -2706.730933c  -5.91  -3.71    +0.0000
iter:  30 02:32:32 -2706.731172c  -6.19  -3.76    +0.0000
iter:  31 02:33:01 -2706.731113c  -5.98  -3.86    +0.0000
iter:  32 02:33:31 -2706.731307c  -6.40  -4.06c   +0.0000
iter:  33 02:34:00 -2706.731339c  -7.12  -4.17c   +0.0000
iter:  34 02:34:29 -2706.731561c  -6.31  -4.19c   +0.0000
iter:  35 02:34:59 -2706.731712c  -6.65  -4.27c   +0.0000
iter:  36 02:35:28 -2706.731809c  -7.25  -4.30c   +0.0000
iter:  37 02:35:58 -2706.732057c  -6.94  -4.39c   +0.0000
iter:  38 02:36:27 -2706.732094c  -7.31  -4.58c   +0.0000
iter:  39 02:36:56 -2706.732012c  -7.85c -4.65c   +0.0000

Converged after 39 iterations.

Dipole moment: (-0.000000, -0.976861, -0.002711) |e|*Ang

Total magnetic moment: (0.000000, 0.000000, 0.000009)
Local magnetic moments:
   0 Ni ( 0.000000,  0.000000, -0.000000)
   1 Ni ( 0.000000,  0.000000, -0.000001)
   2 Ni ( 0.000000,  0.000000, -0.000000)
   3 Ni ( 0.000000,  0.000000,  0.000000)
   4 Ni ( 0.000000,  0.000000,  0.000000)
   5 Ni ( 0.000000,  0.000000,  0.000000)
   6 Ni ( 0.000000,  0.000000, -0.000001)
   7 Ni ( 0.000000,  0.000000, -0.000001)
   8 Ni ( 0.000000,  0.000000, -0.000001)
   9 Ni ( 0.000000,  0.000000,  0.000000)
  10 Ni ( 0.000000,  0.000000, -0.000001)
  11 Ni ( 0.000000,  0.000000, -0.000001)
  12 Ni ( 0.000000,  0.000000,  0.000001)
  13 Ni ( 0.000000,  0.000000,  0.000000)
  14 Ni ( 0.000000,  0.000000,  0.000000)
  15 Ni ( 0.000000,  0.000000,  0.000001)
  16 Ni ( 0.000000,  0.000000,  0.000002)
  17 Ni ( 0.000000,  0.000000,  0.000001)
  18 Ni ( 0.000000,  0.000000,  0.000000)
  19 Ni ( 0.000000,  0.000000,  0.000000)
  20 Ni ( 0.000000,  0.000000,  0.000000)
  21 Ni ( 0.000000,  0.000000, -0.000000)
  22 Ni ( 0.000000,  0.000000,  0.000000)
  23 Ni ( 0.000000,  0.000000, -0.000000)
  24 Ni ( 0.000000,  0.000000, -0.000001)
  25 Ni ( 0.000000,  0.000000,  0.000001)
  26 Ni ( 0.000000,  0.000000,  0.000001)
  27 Ni ( 0.000000,  0.000000,  0.000001)
  28 Ni ( 0.000000,  0.000000,  0.000001)
  29 Ni ( 0.000000,  0.000000,  0.000001)
  30 Ni ( 0.000000,  0.000000,  0.000002)
  31 Ni ( 0.000000,  0.000000,  0.000002)
  32 Ni ( 0.000000,  0.000000,  0.000002)
  33 Ni ( 0.000000,  0.000000,  0.000001)
  34 Ni ( 0.000000,  0.000000,  0.000000)
  35 Ni ( 0.000000,  0.000000,  0.000001)

Energy contributions relative to reference atoms: (reference = -1489247.944103)

Kinetic:       +979.813216
Potential:     -842.748984
External:        +0.000000
XC:            -2844.906568
Entropy (-ST):   -3.583930
Local:           +2.902289
SIC:             +0.000000
--------------------------
Free energy:   -2708.523977
Extrapolated:  -2706.732012

Spin contamination: 0.000015 electrons
Showing only first 2 kpts
                      Up                     Down
 Kpt  Band  Eigenvalues  Occupancy  Eigenvalues  Occupancy
  0   286     -2.69716    0.69096     -2.69716    0.69096
  0   287     -2.66377    0.61554     -2.66377    0.61554
  0   288     -2.65448    0.59335     -2.65448    0.59335
  0   289     -2.65448    0.59334     -2.65448    0.59334

  1   286     -2.67236    0.63567     -2.67236    0.63567
  1   287     -2.66393    0.61592     -2.66393    0.61591
  1   288     -2.65254    0.58866     -2.65254    0.58865
  1   289     -2.64411    0.56809     -2.64411    0.56809


Fermi level: -2.61670

No gap
No difference between direct/indirect transitions

Forces in eV/Ang:
  0 Ni   -0.00079   -0.00283    0.00636
  1 Ni    0.00000   -0.00317    0.00640
  2 Ni    0.00079   -0.00283    0.00636
  3 Ni    0.00000   -0.00324    0.00615
  4 Ni    0.00074   -0.00315    0.00642
  5 Ni   -0.00074   -0.00315    0.00642
  6 Ni   -0.00077   -0.00301    0.00616
  7 Ni    0.00000   -0.00334    0.00603
  8 Ni    0.00077   -0.00301    0.00616
  9 Ni    0.00000   -0.00295    0.00617
 10 Ni    0.00075   -0.00286    0.00642
 11 Ni   -0.00075   -0.00286    0.00642
 12 Ni    0.00000    0.01157   -1.34473
 13 Ni   -0.00506    0.01613   -1.32194
 14 Ni    0.00506    0.01613   -1.32194
 15 Ni    0.00556    0.01553   -1.32840
 16 Ni    0.00000    0.01560   -1.33481
 17 Ni   -0.00556    0.01553   -1.32840
 18 Ni    0.00000    0.01208   -1.34651
 19 Ni   -0.00520    0.01671   -1.32412
 20 Ni    0.00520    0.01671   -1.32412
 21 Ni    0.00565    0.01438   -1.32828
 22 Ni    0.00000    0.01455   -1.33446
 23 Ni   -0.00565    0.01438   -1.32828
 24 Ni    0.00000   -0.00937    1.33199
 25 Ni   -0.01416   -0.01050    1.31921
 26 Ni    0.01416   -0.01050    1.31921
 27 Ni    0.03281   -0.01391    1.32152
 28 Ni    0.00000   -0.01291    1.32740
 29 Ni   -0.03281   -0.01391    1.32152
 30 Ni    0.00000   -0.01236    1.33095
 31 Ni   -0.01450   -0.01370    1.31861
 32 Ni    0.01450   -0.01370    1.31861
 33 Ni    0.03266   -0.01027    1.32077
 34 Ni    0.00000   -0.00864    1.32697
 35 Ni   -0.03266   -0.01027    1.32077

System changes: positions 

Initializing position-dependent things.

Density initialized from wave functions
      .------------------.  
     /|                  |  
    / |                  |  
   /  |                  |  
  /   |                  |  
 *    |                  |  
 |    |                  |  
 |    |                  |  
 |    |                  |  
 |    |                  |  
 |    |                  |  
 |    |                  |  
 |    |                  |  
 |    |                  |  
 |    |                  |  
 |    |                  |  
 |    |                  |  
 |    | Ni    Ni     Ni  |  
 |  Ni|   Ni    Ni       |  
 |    |  Ni    Ni    Ni  |  
 |  NNi    NNi   NNi     |  
 Ni   NNi    NNi   Ni    |  
 |   Ni    Ni     Ni     |  
 |Ni  |NNi   NiNi   Ni   |  
 | Ni |  Ni    Ni        |  
 |    |                  |  
 |   Ni    Ni    Ni      |  
 |    |                  |  
 |    |                  |  
 |    |                  |  
 |    |                  |  
 |    |                  |  
 |    |                  |  
 |    |                  |  
 |    |                  |  
 |    |                  |  
 |    |                  |  
 |    .------------------.  
 |   /                  /   
 |  /                  /    
 | /                  /     
 |/                  /      
 *------------------*       

Positions:
   0 Ni     1.259693    0.727284   12.942930    ( 0.0000,  0.0000,  0.0000)
   1 Ni     3.779079    0.727284   12.942930    ( 0.0000,  0.0000,  0.0000)
   2 Ni     6.298464    0.727284   12.942930    ( 0.0000,  0.0000,  0.0000)
   3 Ni     0.000000    2.909136   12.942930    ( 0.0000,  0.0000,  0.0000)
   4 Ni     2.519386    2.909136   12.942930    ( 0.0000,  0.0000,  0.0000)
   5 Ni     5.038772    2.909136   12.942930    ( 0.0000,  0.0000,  0.0000)
   6 Ni     1.259693    5.090988   12.942930    ( 0.0000,  0.0000,  0.0000)
   7 Ni     3.779079    5.090988   12.942930    ( 0.0000,  0.0000,  0.0000)
   8 Ni     6.298464    5.090988   12.942930    ( 0.0000,  0.0000,  0.0000)
   9 Ni     0.000000    7.272840   12.942930    ( 0.0000,  0.0000,  0.0000)
  10 Ni     2.519386    7.272840   12.942930    ( 0.0000,  0.0000,  0.0000)
  11 Ni     5.038772    7.272840   12.942930    ( 0.0000,  0.0000,  0.0000)
  12 Ni     0.000000    1.454568   15.000000    ( 0.0000,  0.0000,  0.0000)
  13 Ni     2.519386    1.454568   15.000000    ( 0.0000,  0.0000,  0.0000)
  14 Ni     5.038772    1.454568   15.000000    ( 0.0000,  0.0000,  0.0000)
  15 Ni     1.259693    3.636420   15.000000    ( 0.0000,  0.0000,  0.0000)
  16 Ni     3.779079    3.636420   15.000000    ( 0.0000,  0.0000,  0.0000)
  17 Ni     6.298464    3.636420   15.000000    ( 0.0000,  0.0000,  0.0000)
  18 Ni     0.000000    5.818272   15.000000    ( 0.0000,  0.0000,  0.0000)
  19 Ni     2.519386    5.818272   15.000000    ( 0.0000,  0.0000,  0.0000)
  20 Ni     5.038772    5.818272   15.000000    ( 0.0000,  0.0000,  0.0000)
  21 Ni     1.259693    8.000124   15.000000    ( 0.0000,  0.0000,  0.0000)
  22 Ni     3.779079    8.000124   15.000000    ( 0.0000,  0.0000,  0.0000)
  23 Ni     6.298464    8.000124   15.000000    ( 0.0000,  0.0000,  0.0000)
  24 Ni     0.000000    0.000431   17.046480    ( 0.0000,  0.0000,  0.0000)
  25 Ni     2.519456    0.000428   17.046540    ( 0.0000,  0.0000,  0.0000)
  26 Ni     5.038702    0.000428   17.046540    ( 0.0000,  0.0000,  0.0000)
  27 Ni     1.259534    2.182299   17.046534    ( 0.0000,  0.0000,  0.0000)
  28 Ni     3.779079    2.182300   17.046492    ( 0.0000,  0.0000,  0.0000)
  29 Ni     6.298623    2.182299   17.046534    ( 0.0000,  0.0000,  0.0000)
  30 Ni     0.000000    4.364151   17.046488    ( 0.0000,  0.0000,  0.0000)
  31 Ni     2.519456    4.364149   17.046547    ( 0.0000,  0.0000,  0.0000)
  32 Ni     5.038701    4.364149   17.046547    ( 0.0000,  0.0000,  0.0000)
  33 Ni     1.259535    6.545984   17.046540    ( 0.0000,  0.0000,  0.0000)
  34 Ni     3.779079    6.545982   17.046497    ( 0.0000,  0.0000,  0.0000)
  35 Ni     6.298622    6.545984   17.046540    ( 0.0000,  0.0000,  0.0000)

Unit cell:
           periodic     x           y           z      points  spacing
  1. axis:    yes    7.558157    0.000000    0.000000    40     0.1890
  2. axis:    yes    0.000000    8.727408    0.000000    48     0.1818
  3. axis:    no     0.000000    0.000000   30.000000   160     0.1875

  Lengths:   7.558157   8.727408  30.000000
  Angles:   90.000000  90.000000  90.000000

Effective grid spacing dv^(1/3) = 0.1861

     iter     time        total  log10-change:  magmom
                         energy   eigst   dens
iter:   1 02:37:40 -2836.126569   +0.05           +0.0000
iter:   2 02:38:10 -2761.287504   -0.67  -1.24    +0.0000
iter:   3 02:38:39 -2731.113155   -1.31  -1.46    +0.0000
iter:   4 02:39:08 -2721.628471   -1.10  -1.55    +0.0000
iter:   5 02:39:38 -2725.238340   -1.28  -1.71    +0.0000
iter:   6 02:40:07 -2718.362970   -2.18  -1.82    +0.0000
iter:   7 02:40:36 -2714.419822   -1.27  -1.88    +0.0000
iter:   8 02:41:06 -2709.237964   -1.98  -2.05    +0.0000
iter:   9 02:41:35 -2708.735278   -2.36  -2.27    +0.0000
iter:  10 02:42:05 -2708.442412   -3.35  -2.30    +0.0000
iter:  11 02:42:34 -2708.199468   -3.08  -2.36    +0.0000
iter:  12 02:43:03 -2708.196640c  -2.90  -2.55    +0.0000
iter:  13 02:43:33 -2708.086969c  -3.55  -2.68    +0.0000
iter:  14 02:44:02 -2708.087808c  -4.20  -2.81    +0.0000
iter:  15 02:44:31 -2708.083688c  -3.86  -2.81    +0.0000
iter:  16 02:45:01 -2708.059742c  -3.95  -2.83    +0.0000
iter:  17 02:45:30 -2708.038875c  -3.53  -2.96    +0.0000
iter:  18 02:46:00 -2708.031739c  -4.36  -3.05    +0.0000
iter:  19 02:46:29 -2708.030522c  -4.62  -3.09    +0.0000
iter:  20 02:46:58 -2708.029576c  -4.56  -3.13    +0.0000
iter:  21 02:47:28 -2708.025803c  -4.59  -3.15    +0.0000
iter:  22 02:47:57 -2708.025218c  -4.76  -3.30    +0.0000
iter:  23 02:48:26 -2708.026509c  -5.02  -3.49    +0.0000
iter:  24 02:48:56 -2708.026061c  -5.86  -3.48    +0.0000
iter:  25 02:49:25 -2708.027617c  -5.73  -3.51    +0.0000
iter:  26 02:49:55 -2708.025882c  -5.17  -3.49    +0.0000
iter:  27 02:50:24 -2708.025700c  -5.83  -3.66    +0.0000
iter:  28 02:50:53 -2708.025903c  -6.06  -3.69    +0.0000
iter:  29 02:51:23 -2708.026211c  -6.16  -3.73    +0.0000
iter:  30 02:51:52 -2708.026559c  -6.12  -3.80    +0.0000
iter:  31 02:52:22 -2708.026618c  -6.54  -3.86    +0.0000
iter:  32 02:52:51 -2708.027741c  -5.66  -3.84    +0.0001
iter:  33 02:53:20 -2708.027259c  -6.07  -3.94    +0.0001
iter:  34 02:53:50 -2708.027438c  -6.57  -4.06c   +0.0001
iter:  35 02:54:19 -2708.027414c  -7.40  -4.23c   +0.0001
iter:  36 02:54:48 -2708.027499c  -7.18  -4.25c   +0.0001
iter:  37 02:55:18 -2708.027614c  -7.11  -4.35c   +0.0001
iter:  38 02:55:47 -2708.027702c  -7.49c -4.44c   +0.0001

Converged after 38 iterations.

Dipole moment: (-0.000000, -0.179113, 0.001897) |e|*Ang

Total magnetic moment: (0.000000, 0.000000, 0.000095)
Local magnetic moments:
   0 Ni ( 0.000000,  0.000000, -0.000001)
   1 Ni ( 0.000000,  0.000000, -0.000002)
   2 Ni ( 0.000000,  0.000000, -0.000001)
   3 Ni ( 0.000000,  0.000000,  0.000006)
   4 Ni ( 0.000000,  0.000000,  0.000002)
   5 Ni ( 0.000000,  0.000000,  0.000002)
   6 Ni ( 0.000000,  0.000000,  0.000000)
   7 Ni ( 0.000000,  0.000000, -0.000001)
   8 Ni ( 0.000000,  0.000000,  0.000000)
   9 Ni ( 0.000000,  0.000000, -0.000001)
  10 Ni ( 0.000000,  0.000000,  0.000002)
  11 Ni ( 0.000000,  0.000000,  0.000002)
  12 Ni ( 0.000000,  0.000000,  0.000001)
  13 Ni ( 0.000000,  0.000000,  0.000002)
  14 Ni ( 0.000000,  0.000000,  0.000002)
  15 Ni ( 0.000000,  0.000000,  0.000005)
  16 Ni ( 0.000000,  0.000000,  0.000006)
  17 Ni ( 0.000000,  0.000000,  0.000005)
  18 Ni ( 0.000000,  0.000000,  0.000003)
  19 Ni ( 0.000000,  0.000000,  0.000003)
  20 Ni ( 0.000000,  0.000000,  0.000003)
  21 Ni ( 0.000000,  0.000000, -0.000000)
  22 Ni ( 0.000000,  0.000000,  0.000000)
  23 Ni ( 0.000000,  0.000000, -0.000000)
  24 Ni ( 0.000000,  0.000000,  0.000003)
  25 Ni ( 0.000000,  0.000000,  0.000002)
  26 Ni ( 0.000000,  0.000000,  0.000002)
  27 Ni ( 0.000000,  0.000000,  0.000004)
  28 Ni ( 0.000000,  0.000000,  0.000008)
  29 Ni ( 0.000000,  0.000000,  0.000004)
  30 Ni ( 0.000000,  0.000000,  0.000004)
  31 Ni ( 0.000000,  0.000000,  0.000009)
  32 Ni ( 0.000000,  0.000000,  0.000009)
  33 Ni ( 0.000000,  0.000000,  0.000005)
  34 Ni ( 0.000000,  0.000000,  0.000003)
  35 Ni ( 0.000000,  0.000000,  0.000005)

Energy contributions relative to reference atoms: (reference = -1489247.944103)

Kinetic:       +917.921707
Potential:     -793.732603
External:        +0.000000
XC:            -2833.426143
Entropy (-ST):   -3.671548
Local:           +3.045111
SIC:             +0.000000
--------------------------
Free energy:   -2709.863476
Extrapolated:  -2708.027702

Spin contamination: 0.000013 electrons
Showing only first 2 kpts
                      Up                     Down
 Kpt  Band  Eigenvalues  Occupancy  Eigenvalues  Occupancy
  0   286     -2.70958    0.66810     -2.70958    0.66810
  0   287     -2.70702    0.66240     -2.70702    0.66240
  0   288     -2.69727    0.64026     -2.69727    0.64026
  0   289     -2.69727    0.64026     -2.69727    0.64026

  1   286     -2.71655    0.68338     -2.71655    0.68337
  1   287     -2.70259    0.65242     -2.70258    0.65241
  1   288     -2.69013    0.62365     -2.69013    0.62365
  1   289     -2.67550    0.58875     -2.67549    0.58874


Fermi level: -2.63962

No gap
No difference between direct/indirect transitions

Forces in eV/Ang:
  0 Ni   -0.00072   -0.00235    0.06352
  1 Ni    0.00000   -0.00235    0.06387
  2 Ni    0.00072   -0.00235    0.06352
  3 Ni    0.00000   -0.00273    0.06371
  4 Ni    0.00079   -0.00273    0.06350
  5 Ni   -0.00079   -0.00273    0.06350
  6 Ni   -0.00072   -0.00270    0.06328
  7 Ni    0.00000   -0.00269    0.06356
  8 Ni    0.00072   -0.00270    0.06328
  9 Ni    0.00000   -0.00236    0.06360
 10 Ni    0.00077   -0.00235    0.06338
 11 Ni   -0.00077   -0.00235    0.06338
 12 Ni    0.00000    0.00025   -0.04495
 13 Ni    0.00073    0.00030   -0.04457
 14 Ni   -0.00073    0.00030   -0.04457
 15 Ni   -0.00046   -0.00004   -0.04472
 16 Ni    0.00000   -0.00007   -0.04462
 17 Ni    0.00046   -0.00004   -0.04472
 18 Ni    0.00000    0.00021   -0.04519
 19 Ni    0.00076    0.00026   -0.04448
 20 Ni   -0.00076    0.00026   -0.04448
 21 Ni   -0.00047    0.00058   -0.04471
 22 Ni    0.00000    0.00049   -0.04464
 23 Ni    0.00047    0.00058   -0.04471
 24 Ni    0.00000    0.00251    0.00113
 25 Ni    0.00034    0.00248    0.00146
 26 Ni   -0.00034    0.00248    0.00146
 27 Ni    0.00066    0.00194    0.00146
 28 Ni    0.00000    0.00197    0.00116
 29 Ni   -0.00066    0.00194    0.00146
 30 Ni    0.00000    0.00186    0.00118
 31 Ni    0.00033    0.00186    0.00150
 32 Ni   -0.00033    0.00186    0.00150
 33 Ni    0.00067    0.00242    0.00160
 34 Ni    0.00000    0.00246    0.00126
 35 Ni   -0.00067    0.00242    0.00160

Timing:                                      incl.     excl.
-------------------------------------------------------------------
Density initialized from wave functions:     5.252     4.988   0.1% |
 Symmetrize density:                         0.264     0.264   0.0% |
Forces:                                     23.291    23.291   0.6% |
Hamiltonian:                                23.137     0.028   0.0% |
 Atomic:                                     0.701     0.003   0.0% |
  XC Correction:                             0.698     0.698   0.0% |
 Calculate atomic Hamiltonians:              1.500     1.500   0.0% |
 Communicate:                                0.744     0.744   0.0% |
 Initialize Hamiltonian:                     0.001     0.001   0.0% |
 Poisson:                                    0.011     0.011   0.0% |
 XC 3D grid:                                20.152     5.695   0.2% |
  VdW-DF integral:                          14.457     0.449   0.0% |
   Convolution:                              1.186     1.186   0.0% |
   FFT:                                      0.442     0.442   0.0% |
   gather:                                   3.180     3.180   0.1% |
   hmm1:                                     0.364     0.364   0.0% |
   hmm2:                                     0.623     0.623   0.0% |
   iFFT:                                     0.385     0.385   0.0% |
   potential:                                4.113     0.079   0.0% |
    collect:                                 0.309     0.309   0.0% |
    p1:                                      2.063     2.063   0.1% |
    p2:                                      1.083     1.083   0.0% |
    sum:                                     0.579     0.579   0.0% |
   splines:                                  3.714     3.714   0.1% |
LCAO initialization:                        61.708     0.074   0.0% |
 LCAO eigensolver:                           9.729     0.002   0.0% |
  Calculate projections:                     0.000     0.000   0.0% |
  DenseAtomicCorrection:                     0.000     0.000   0.0% |
  Distribute overlap matrix:                 9.385     9.385   0.3% |
  Orbital Layouts:                           0.336     0.336   0.0% |
  Potential matrix:                          0.001     0.001   0.0% |
  Sum over cells:                            0.005     0.005   0.0% |
 LCAO to grid:                              51.149    51.149   1.4% ||
 Set positions (LCAO WFS):                   0.757     0.662   0.0% |
  Basic WFS set positions:                   0.002     0.002   0.0% |
  Basis functions set positions:             0.000     0.000   0.0% |
  P tci:                                     0.001     0.001   0.0% |
  ST tci:                                    0.066     0.066   0.0% |
  mktci:                                     0.026     0.026   0.0% |
PWDescriptor:                                1.008     1.008   0.0% |
Redistribute:                                0.002     0.002   0.0% |
SCF-cycle:                                3561.837     3.908   0.1% |
 Davidson:                                2770.255   527.546  14.2% |-----|
  Apply H:                                 256.373   251.265   6.8% |--|
   HMM T:                                    5.108     5.108   0.1% |
  Subspace diag:                           469.200     0.032   0.0% |
   calc_h_matrix:                          327.135    76.886   2.1% ||
    Apply H:                               250.249   245.081   6.6% |--|
     HMM T:                                  5.169     5.169   0.1% |
   diagonalize:                             19.842    19.842   0.5% |
   rotate_psi:                             122.191   122.191   3.3% ||
  calc. matrices:                          995.079   495.065  13.4% |----|
   Apply H:                                500.015   489.810  13.2% |----|
    HMM T:                                  10.205    10.205   0.3% |
  diagonalize:                             287.642   287.642   7.8% |--|
  rotate_psi:                              234.414   234.414   6.3% |--|
 Density:                                  209.657     0.002   0.0% |
  Atomic density matrices:                   1.240     1.240   0.0% |
  Mix:                                      64.964    64.964   1.8% ||
  Multipole moments:                         0.058     0.058   0.0% |
  Pseudo density:                          143.393   132.998   3.6% ||
   Symmetrize density:                      10.394    10.394   0.3% |
 Hamiltonian:                              570.548     0.751   0.0% |
  Atomic:                                   20.814     0.089   0.0% |
   XC Correction:                           20.724    20.724   0.6% |
  Calculate atomic Hamiltonians:            43.877    43.877   1.2% |
  Communicate:                              21.887    21.887   0.6% |
  Poisson:                                   0.333     0.333   0.0% |
  XC 3D grid:                              482.887   168.969   4.6% |-|
   VdW-DF integral:                        313.917    13.165   0.4% |
    Convolution:                            34.849    34.849   0.9% |
    FFT:                                    12.932    12.932   0.3% |
    gather:                                 90.538    90.538   2.4% ||
    hmm1:                                   10.930    10.930   0.3% |
    hmm2:                                   19.363    19.363   0.5% |
    iFFT:                                   11.302    11.302   0.3% |
    potential:                             120.838     2.275   0.1% |
     collect:                                9.111     9.111   0.2% |
     p1:                                    59.499    59.499   1.6% ||
     p2:                                    30.977    30.977   0.8% |
     sum:                                   18.977    18.977   0.5% |
    splines:                                 0.001     0.001   0.0% |
 Orthonormalize:                             7.469     0.002   0.0% |
  calc_s_matrix:                             1.238     1.238   0.0% |
  inverse-cholesky:                          0.358     0.358   0.0% |
  projections:                               3.865     3.865   0.1% |
  rotate_psi_s:                              2.006     2.006   0.1% |
Set symmetry:                                0.002     0.002   0.0% |
Other:                                      31.069    31.069   0.8% |
-------------------------------------------------------------------
Total:                                              3707.306 100.0%

Memory usage: 1.08 GiB
Date: Tue Apr 22 02:55:58 2025
